
     Program PWSCF v.7.0 starts on 20May2023 at 19: 3:26 

     This program is part of the open-source Quantum ESPRESSO suite
     for quantum simulation of materials; please cite
         "P. Giannozzi et al., J. Phys.:Condens. Matter 21 395502 (2009);
         "P. Giannozzi et al., J. Phys.:Condens. Matter 29 465901 (2017);
         "P. Giannozzi et al., J. Chem. Phys. 152 154105 (2020);
          URL http://www.quantum-espresso.org", 
     in publications or presentations arising from this work. More details at
     http://www.quantum-espresso.org/quote

     Parallel version (MPI & OpenMP), running on      32 processor cores
     Number of MPI processes:                 1
     Threads/MPI process:                    32

     MPI processes distributed on     1 nodes
     173057 MiB available memory on the printing compute node when the environment starts
 
     Reading input from espresso_15288.pwi
Warning: card &CELL ignored
Warning: card / ignored

     Current dimensions of program PWSCF are:
     Max number of different atomic species (ntypx) = 10
     Max number of k-points (npk) =  40000
     Max angular momentum in pseudopotentials (lmaxx) =  4
     file Nb.pbe-spn-kjpaw_psl.0.3.0.UPF: wavefunction(s)  4S 4P renormalized

     gamma-point specific algorithms are used
     Message from routine setup:
     using ibrav=0 with symmetry is DISCOURAGED, use correct ibrav instead

     Subspace diagonalization in iterative solution of the eigenvalue problem:
     a serial algorithm will be used

 
     G-vector sticks info
     --------------------
     sticks:   dense  smooth     PW     G-vecs:    dense   smooth      PW
     Sum        7341    3665    915               254465    89913   11221
 
     Using Slab Decomposition
 


     bravais-lattice index     =            0
     lattice parameter (alat)  =      28.3200  a.u.
     unit-cell volume          =    4053.1835 (a.u.)^3
     number of atoms/cell      =           16
     number of atomic types    =            4
     number of electrons       =       148.00
     number of Kohn-Sham states=           89
     kinetic-energy cutoff     =      30.0000  Ry
     charge density cutoff     =     240.0000  Ry
     scf convergence threshold =      1.0E-06
     mixing beta               =       0.7000
     number of iterations used =            8  plain     mixing
     Exchange-correlation= SLA  PW   PBE  PBE
                           (   1   4   3   4   0   0   0)

     celldm(1)=  28.320026  celldm(2)=   0.000000  celldm(3)=   0.000000
     celldm(4)=   0.000000  celldm(5)=   0.000000  celldm(6)=   0.000000

     crystal axes: (cart. coord. in units of alat)
               a(1) = (   1.000000   0.000000   0.000000 )  
               a(2) = (   0.750226   0.479449   0.000000 )  
               a(3) = (   0.249774  -0.302227   0.372197 )  

     reciprocal axes: (cart. coord. in units 2 pi/alat)
               b(1) = (  1.000000 -1.564765 -1.941685 )  
               b(2) = (  0.000000  2.085726  1.693629 )  
               b(3) = (  0.000000  0.000000  2.686751 )  


     PseudoPot. # 1 for Cs read from file:
     /home/pragov/projects/rrg-bengioy-ad/pragov/crystal_structure_design/SSSP/Cs_pbe_v1.uspp.F.UPF
     MD5 check sum: 3476d69cb178dfad3ffaa59df4e07ca4
     Pseudo is Ultrasoft + core correction, Zval =  9.0
     Generated by new atomic code, or converted to UPF format
     Using radial grid of  905 points,  6 beta functions with: 
                l(1) =   0
                l(2) =   0
                l(3) =   1
                l(4) =   1
                l(5) =   2
                l(6) =   2
     Q(r) pseudized with  6 coefficients,  rinner =    1.500   1.500   1.500
                                                       1.500   1.500

     PseudoPot. # 2 for Nb read from file:
     /home/pragov/projects/rrg-bengioy-ad/pragov/crystal_structure_design/SSSP/Nb.pbe-spn-kjpaw_psl.0.3.0.UPF
     MD5 check sum: 411d72ad547312f8017e2943ceca08cc
     Pseudo is Projector augmented-wave + core cor, Zval = 13.0
     Generated using "atomic" code by A. Dal Corso  v.5.0.99 svn rev. 10869
     Shape of augmentation charge: PSQ
     Using radial grid of 1227 points,  6 beta functions with: 
                l(1) =   0
                l(2) =   0
                l(3) =   1
                l(4) =   1
                l(5) =   2
                l(6) =   2
     Q(r) pseudized with 0 coefficients 


     PseudoPot. # 3 for Ag read from file:
     /home/pragov/projects/rrg-bengioy-ad/pragov/crystal_structure_design/SSSP/Ag_ONCV_PBE-1.0.oncvpsp.upf
     MD5 check sum: 94f47bd0669c641108e45594df92fabc
     Pseudo is Norm-conserving, Zval = 19.0
     Generated using ONCVPSP code by D. R. Hamann
     Using radial grid of 1398 points,  6 beta functions with: 
                l(1) =   0
                l(2) =   0
                l(3) =   1
                l(4) =   1
                l(5) =   2
                l(6) =   2

     PseudoPot. # 4 for Se read from file:
     /home/pragov/projects/rrg-bengioy-ad/pragov/crystal_structure_design/SSSP/Se_pbe_v1.uspp.F.UPF
     MD5 check sum: 1b3568f3a8ae88f9a2a0ad0698632c85
     Pseudo is Ultrasoft + core correction, Zval =  6.0
     Generated by new atomic code, or converted to UPF format
     Using radial grid of  877 points,  6 beta functions with: 
                l(1) =   0
                l(2) =   0
                l(3) =   1
                l(4) =   1
                l(5) =   2
                l(6) =   2
     Q(r) pseudized with  8 coefficients,  rinner =    1.300   1.300   1.300
                                                       1.300   1.300

     atomic species   valence    mass     pseudopotential
        Cs             9.00   132.90545     Cs( 1.00)
        Nb            13.00    92.90637     Nb( 1.00)
        Ag            19.00   107.86820     Ag( 1.00)
        Se             6.00    78.97100     Se( 1.00)

      2 Sym. Ops., with inversion, found ( 1 have fractional translation)


                                    s                        frac. trans.

      isym =  1     identity                                     

 cryst.   s( 1) = (     1          0          0      )
                  (     0          1          0      )
                  (     0          0          1      )

 cart.    s( 1) = (  1.0000000 -0.0000000  0.0000000 )
                  (  0.0000000  1.0000000  0.0000000 )
                  (  0.0000000  0.0000000  1.0000000 )


      isym =  2     inversion                                    

 cryst.   s( 2) = (    -1          0          0      )    f =( -0.2500000 )
                  (     0         -1          0      )       ( -0.2500000 )
                  (     0          0         -1      )       ( -0.2500000 )

 cart.    s( 2) = ( -1.0000000  0.0000000 -0.0000000 )    f =( -0.5000000 )
                  (  0.0000000 -1.0000000 -0.0000000 )       ( -0.0443055 )
                  (  0.0000000  0.0000000 -1.0000000 )       ( -0.0930492 )


   Cartesian axes

     site n.     atom                  positions (alat units)
         1           Cs  tau(   1) = (   1.7690729   0.2730931   0.2124023  )
         2           Cs  tau(   2) = (   1.2309271  -0.0072599   0.3458928  )
         3           Cs  tau(   3) = (   1.2690729   0.2287876   0.1193531  )
         4           Cs  tau(   4) = (   0.7309271  -0.0515654   0.2528437  )
         5           Nb  tau(   5) = (   1.5000000   0.1329166   0.2791476  )
         6           Nb  tau(   6) = (   1.0000000   0.0886111   0.1860984  )
         7           Ag  tau(   7) = (   0.0000000   0.0000000   0.0000000  )
         8           Ag  tau(   8) = (   0.5000000   0.0443055   0.0930492  )
         9           Se  tau(   9) = (   0.8691959   0.0821288   0.0890194  )
        10           Se  tau(  10) = (   1.1308041   0.0173348   0.1198712  )
        11           Se  tau(  11) = (   1.0343956   0.2459499   0.2113467  )
        12           Se  tau(  12) = (   0.9656044   0.0090308   0.3241562  )
        13           Se  tau(  13) = (   1.5343956   0.2124969   0.1410897  )
        14           Se  tau(  14) = (   0.6189704  -0.2752565   0.3453747  )
        15           Se  tau(  15) = (   0.4656044  -0.0244222   0.2538992  )
        16           Se  tau(  16) = (   1.3810296   0.4416261   0.0040298  )

   Crystallographic axes

     site n.     atom                  positions (cryst. coord.)
         1           Cs  tau(   1) = (  0.9293280  0.9293280  0.5706720  )
         2           Cs  tau(   2) = (  0.5706720  0.5706720  0.9293280  )
         3           Cs  tau(   3) = (  0.6793280  0.6793280  0.3206720  )
         4           Cs  tau(   4) = (  0.3206720  0.3206720  0.6793280  )
         5           Nb  tau(   5) = (  0.7500000  0.7500000  0.7500000  )
         6           Nb  tau(   6) = (  0.5000000  0.5000000  0.5000000  )
         7           Ag  tau(   7) = (  0.0000000  0.0000000  0.0000000  )
         8           Ag  tau(   8) = (  0.2500000  0.2500000  0.2500000  )
         9           Se  tau(   9) = (  0.5678360  0.3220640  0.2391730  )
        10           Se  tau(  10) = (  0.8709270  0.2391730  0.3220640  )
        11           Se  tau(  11) = (  0.2391730  0.8709270  0.5678360  )
        12           Se  tau(  12) = (  0.3220640  0.5678360  0.8709270  )
        13           Se  tau(  13) = (  0.9279360  0.6821640  0.3790730  )
        14           Se  tau(  14) = (  0.3790730  0.0108270  0.9279360  )
        15           Se  tau(  15) = (  0.0108270  0.3790730  0.6821640  )
        16           Se  tau(  16) = (  0.6821640  0.9279360  0.0108270  )

     number of k points=     1  Methfessel-Paxton smearing, width (Ry)=  0.0010
                       cart. coord. in units 2pi/alat
        k(    1) = (   0.0000000   0.0000000   0.0000000), wk =   2.0000000

                       cryst. coord.
        k(    1) = (   0.0000000   0.0000000   0.0000000), wk =   2.0000000

     Dense  grid:   127233 G-vectors     FFT dimensions: ( 144, 128,  80)

     Smooth grid:    44957 G-vectors     FFT dimensions: ( 100,  96,  60)

     Dynamical RAM for                 wfc:       7.64 MB

     Dynamical RAM for     wfc (w. buffer):       7.64 MB

     Dynamical RAM for           str. fact:       7.77 MB

     Dynamical RAM for           local pot:       0.00 MB

     Dynamical RAM for          nlocal pot:      24.71 MB

     Dynamical RAM for                qrad:       4.98 MB

     Dynamical RAM for          rho,v,vnew:      39.57 MB

     Dynamical RAM for               rhoin:      13.19 MB

     Dynamical RAM for            rho*nmix:      31.06 MB

     Dynamical RAM for           G-vectors:       7.62 MB

     Dynamical RAM for          h,s,v(r/c):       0.73 MB

     Dynamical RAM for          <psi|beta>:       0.20 MB

     Dynamical RAM for                 psi:      15.27 MB

     Dynamical RAM for                hpsi:      15.27 MB

     Dynamical RAM for                spsi:      15.27 MB

     Dynamical RAM for      wfcinit/wfcrot:      21.63 MB

     Dynamical RAM for           addusdens:     376.64 MB

     Dynamical RAM for          addusforce:     404.82 MB

     Dynamical RAM for         addusstress:     390.23 MB

     Estimated static dynamical RAM per process >     171.43 MB

     Estimated max dynamical RAM per process >     607.32 MB

     Check: negative core charge=   -0.000003

     Initial potential from superposition of free atoms

     starting charge     147.8371, renormalised to     148.0000
     Starting wfcs are  124 randomized atomic wfcs
     Checking if some PAW data can be deallocated... 

     total cpu time spent up to now is       33.9 secs

     Self-consistent Calculation

     iteration #  1     ecut=    30.00 Ry     beta= 0.70
     Davidson diagonalization with overlap

---- Real-time Memory Report at c_bands before calling an iterative solver
           924 MiB given to the printing process from OS
             0 MiB allocation reported by mallinfo(arena+hblkhd)
        172630 MiB available memory on the node where the printing process lives
------------------
     ethr =  1.00E-02,  avg # of iterations =  6.0

     total cpu time spent up to now is       57.8 secs

     total energy              =   -1849.50144247 Ry
     estimated scf accuracy    <       2.63517598 Ry

     iteration #  2     ecut=    30.00 Ry     beta= 0.70
     Davidson diagonalization with overlap

---- Real-time Memory Report at c_bands before calling an iterative solver
           986 MiB given to the printing process from OS
             0 MiB allocation reported by mallinfo(arena+hblkhd)
        172606 MiB available memory on the node where the printing process lives
------------------
     ethr =  1.78E-03,  avg # of iterations =  4.0

     total cpu time spent up to now is       63.8 secs

     total energy              =   -1846.20164077 Ry
     estimated scf accuracy    <      39.56905513 Ry

     iteration #  3     ecut=    30.00 Ry     beta= 0.70
     Davidson diagonalization with overlap

---- Real-time Memory Report at c_bands before calling an iterative solver
           995 MiB given to the printing process from OS
             0 MiB allocation reported by mallinfo(arena+hblkhd)
        172601 MiB available memory on the node where the printing process lives
------------------
     ethr =  1.78E-03,  avg # of iterations =  3.0

     total cpu time spent up to now is       77.3 secs

     total energy              =   -1850.65049442 Ry
     estimated scf accuracy    <       2.16398868 Ry

     iteration #  4     ecut=    30.00 Ry     beta= 0.70
     Davidson diagonalization with overlap

---- Real-time Memory Report at c_bands before calling an iterative solver
           996 MiB given to the printing process from OS
             0 MiB allocation reported by mallinfo(arena+hblkhd)
        172596 MiB available memory on the node where the printing process lives
------------------
     ethr =  1.46E-03,  avg # of iterations =  2.0

     total cpu time spent up to now is       83.5 secs

     total energy              =   -1850.87342989 Ry
     estimated scf accuracy    <       0.94808552 Ry

     iteration #  5     ecut=    30.00 Ry     beta= 0.70
     Davidson diagonalization with overlap

---- Real-time Memory Report at c_bands before calling an iterative solver
           997 MiB given to the printing process from OS
             0 MiB allocation reported by mallinfo(arena+hblkhd)
        172598 MiB available memory on the node where the printing process lives
------------------
     ethr =  6.41E-04,  avg # of iterations =  2.0

     total cpu time spent up to now is       87.8 secs

     total energy              =   -1850.95628891 Ry
     estimated scf accuracy    <       0.12776486 Ry

     iteration #  6     ecut=    30.00 Ry     beta= 0.70
     Davidson diagonalization with overlap

---- Real-time Memory Report at c_bands before calling an iterative solver
           998 MiB given to the printing process from OS
             0 MiB allocation reported by mallinfo(arena+hblkhd)
        172599 MiB available memory on the node where the printing process lives
------------------
     ethr =  8.63E-05,  avg # of iterations =  2.0

     total cpu time spent up to now is       91.8 secs

     total energy              =   -1850.96454154 Ry
     estimated scf accuracy    <       0.01340440 Ry

     iteration #  7     ecut=    30.00 Ry     beta= 0.70
     Davidson diagonalization with overlap

---- Real-time Memory Report at c_bands before calling an iterative solver
           998 MiB given to the printing process from OS
             0 MiB allocation reported by mallinfo(arena+hblkhd)
        172594 MiB available memory on the node where the printing process lives
------------------
     ethr =  9.06E-06,  avg # of iterations =  5.0

     total cpu time spent up to now is       96.2 secs

     total energy              =   -1850.96634957 Ry
     estimated scf accuracy    <       0.00170676 Ry

     iteration #  8     ecut=    30.00 Ry     beta= 0.70
     Davidson diagonalization with overlap

---- Real-time Memory Report at c_bands before calling an iterative solver
           999 MiB given to the printing process from OS
             0 MiB allocation reported by mallinfo(arena+hblkhd)
        172594 MiB available memory on the node where the printing process lives
------------------
     ethr =  1.15E-06,  avg # of iterations =  8.0

     total cpu time spent up to now is      100.8 secs

     total energy              =   -1850.96678518 Ry
     estimated scf accuracy    <       0.00035171 Ry

     iteration #  9     ecut=    30.00 Ry     beta= 0.70
     Davidson diagonalization with overlap

---- Real-time Memory Report at c_bands before calling an iterative solver
          1001 MiB given to the printing process from OS
             0 MiB allocation reported by mallinfo(arena+hblkhd)
        172592 MiB available memory on the node where the printing process lives
------------------
     ethr =  2.38E-07,  avg # of iterations =  4.0

     total cpu time spent up to now is      105.0 secs

     total energy              =   -1850.96679751 Ry
     estimated scf accuracy    <       0.00063701 Ry

     iteration # 10     ecut=    30.00 Ry     beta= 0.70
     Davidson diagonalization with overlap

---- Real-time Memory Report at c_bands before calling an iterative solver
          1002 MiB given to the printing process from OS
             0 MiB allocation reported by mallinfo(arena+hblkhd)
        172594 MiB available memory on the node where the printing process lives
------------------
     ethr =  2.38E-07,  avg # of iterations =  2.0

     total cpu time spent up to now is      109.1 secs

     total energy              =   -1850.96687217 Ry
     estimated scf accuracy    <       0.00008851 Ry

     iteration # 11     ecut=    30.00 Ry     beta= 0.70
     Davidson diagonalization with overlap

---- Real-time Memory Report at c_bands before calling an iterative solver
          1005 MiB given to the printing process from OS
             0 MiB allocation reported by mallinfo(arena+hblkhd)
        172597 MiB available memory on the node where the printing process lives
------------------
     ethr =  5.98E-08,  avg # of iterations =  2.0

     total cpu time spent up to now is      113.2 secs

     total energy              =   -1850.96688288 Ry
     estimated scf accuracy    <       0.00001287 Ry

     iteration # 12     ecut=    30.00 Ry     beta= 0.70
     Davidson diagonalization with overlap

---- Real-time Memory Report at c_bands before calling an iterative solver
          1005 MiB given to the printing process from OS
             0 MiB allocation reported by mallinfo(arena+hblkhd)
        172598 MiB available memory on the node where the printing process lives
------------------
     ethr =  8.70E-09,  avg # of iterations =  4.0

     total cpu time spent up to now is      121.6 secs

     total energy              =   -1850.96688777 Ry
     estimated scf accuracy    <       0.00000119 Ry

     iteration # 13     ecut=    30.00 Ry     beta= 0.70
     Davidson diagonalization with overlap

---- Real-time Memory Report at c_bands before calling an iterative solver
          1005 MiB given to the printing process from OS
             0 MiB allocation reported by mallinfo(arena+hblkhd)
        172601 MiB available memory on the node where the printing process lives
------------------
     ethr =  8.07E-10,  avg # of iterations =  2.0

     total cpu time spent up to now is      125.7 secs

     End of self-consistent calculation

          k = 0.0000 0.0000 0.0000 (  5611 PWs)   bands (ev):

   -88.3819 -88.3797 -51.5058 -51.3659 -51.3584 -51.3425 -51.1886 -50.9056
   -50.8732 -50.8706 -29.7935 -28.2698 -27.4081 -27.0481 -26.9631 -26.9543
   -26.8911 -16.3376 -16.3272 -16.2574 -16.2473 -10.7538  -8.7257  -7.4287
    -7.2337  -6.9498  -6.9173  -6.8029  -6.1633  -5.5506  -3.7334  -3.4731
    -3.4224  -3.3127  -3.2702  -3.2364  -3.2134  -3.1900  -3.1874  -3.1754
    -0.8962  -0.3426  -0.3021   0.0352   0.1098   0.1171   0.3030   0.4226
     0.4582   0.5179   0.5542   1.0129   1.0764   1.6759   2.0453   2.0957
     2.1196   2.2051   2.3355   2.3825   2.4189   2.5429   2.7737   2.7868
     2.8946   2.9076   2.9922   3.1361   3.3636   3.5725   3.5737   3.6443
     3.8781   4.0410   5.0493   5.0990   6.0270   6.1270   6.1886   6.5871
     6.6557   6.8793   7.0373   7.0903   7.2091   7.2899   8.0724   8.1011
     8.4529

     occupation numbers 
     1.0000   1.0000   1.0000   1.0000   1.0000   1.0000   1.0000   1.0000
     1.0000   1.0000   1.0000   1.0000   1.0000   1.0000   1.0000   1.0000
     1.0000   1.0000   1.0000   1.0000   1.0000   1.0000   1.0000   1.0000
     1.0000   1.0000   1.0000   1.0000   1.0000   1.0000   1.0000   1.0000
     1.0000   1.0000   1.0000   1.0000   1.0000   1.0000   1.0000   1.0000
     1.0000   1.0000   1.0000   1.0000   1.0000   1.0000   1.0000   1.0000
     1.0000   1.0000   1.0000   1.0000   1.0000   1.0000   1.0000   1.0000
     1.0000   1.0000   1.0000   1.0000   1.0000   1.0000   1.0000   1.0000
     1.0000   1.0000   1.0000   1.0000   1.0000   1.0000   1.0000   1.0000
     1.0000   1.0000  -0.0000  -0.0000  -0.0000  -0.0000  -0.0000  -0.0000
    -0.0000  -0.0000  -0.0000  -0.0000  -0.0000  -0.0000  -0.0000  -0.0000
    -0.0000

     the Fermi energy is     4.7957 ev

!    total energy              =   -1850.96688746 Ry
     estimated scf accuracy    <       0.00000079 Ry
     smearing contrib. (-TS)   =       0.00000000 Ry
     internal energy E=F+TS    =   -1850.96688746 Ry

     The total energy is F=E-TS. E is the sum of the following terms:
     one-electron contribution =    -856.34880356 Ry
     hartree contribution      =     464.96574063 Ry
     xc contribution           =    -472.75825778 Ry
     ewald contribution        =    -569.89228623 Ry
     one-center paw contrib.   =    -416.93328052 Ry
      -> PAW hartree energy AE =     132.28801737 Ry
      -> PAW hartree energy PS =    -131.56521259 Ry
      -> PAW xc energy AE      =    -471.10346633 Ry
      -> PAW xc energy PS      =      53.44738102 Ry
      -> total E_H with PAW    =     465.68854541 Ry
      -> total E_XC with PAW   =    -890.41434309 Ry

     convergence has been achieved in  13 iterations

     Forces acting on atoms (cartesian axes, Ry/au):

     atom    1 type  1   force =    -0.03652782   -0.02843599    0.03677297
     atom    2 type  1   force =     0.04525511    0.03324831   -0.03008218
     atom    3 type  1   force =    -0.04525511   -0.03324831    0.03008218
     atom    4 type  1   force =     0.03652782    0.02843599   -0.03677297
     atom    5 type  2   force =    -0.05050027   -0.02000576   -0.08653394
     atom    6 type  2   force =     0.05050027    0.02000576    0.08653394
     atom    7 type  3   force =    -0.00680112    0.00283435   -0.00428187
     atom    8 type  3   force =     0.00680112   -0.00283435    0.00428187
     atom    9 type  4   force =     0.26941034   -0.41132168    0.29485121
     atom   10 type  4   force =    -0.26964585    0.69081592    0.22885986
     atom   11 type  4   force =     0.29156011   -0.70559169   -0.24122284
     atom   12 type  4   force =    -0.27394966    0.40134068   -0.27800580
     atom   13 type  4   force =     0.27394966   -0.40134068    0.27800580
     atom   14 type  4   force =     0.26964585   -0.69081592   -0.22885986
     atom   15 type  4   force =    -0.29156011    0.70559169    0.24122284
     atom   16 type  4   force =    -0.26941034    0.41132168   -0.29485121
     The non-local contrib.  to forces
     atom    1 type  1   force =     0.02059700    0.01427875   -0.00772910
     atom    2 type  1   force =    -0.02196752   -0.01969398    0.00290572
     atom    3 type  1   force =     0.02196752    0.01969398   -0.00290572
     atom    4 type  1   force =    -0.02059700   -0.01427875    0.00772910
     atom    5 type  2   force =    -0.07872349    0.00574893   -0.14971575
     atom    6 type  2   force =     0.07872349   -0.00574893    0.14971575
     atom    7 type  3   force =    -0.08264776    0.00168213   -0.01360876
     atom    8 type  3   force =     0.08264776   -0.00168213    0.01360876
     atom    9 type  4   force =     0.31438521   -0.31615788    0.10241281
     atom   10 type  4   force =    -0.25646100    0.38766265    0.09722607
     atom   11 type  4   force =     0.13089724   -0.48304054   -0.05236385
     atom   12 type  4   force =    -0.15191840    0.38645441   -0.15398527
     atom   13 type  4   force =     0.15191840   -0.38645441    0.15398527
     atom   14 type  4   force =     0.25646100   -0.38766265   -0.09722607
     atom   15 type  4   force =    -0.13089724    0.48304054    0.05236385
     atom   16 type  4   force =    -0.31438521    0.31615788   -0.10241281
     The ionic contribution  to forces
     atom    1 type  1   force =    -1.10237724   -0.57429557    0.27345189
     atom    2 type  1   force =     1.10237724    0.57429557   -0.27345189
     atom    3 type  1   force =    -1.10237724   -0.57429557    0.27345189
     atom    4 type  1   force =     1.10237724    0.57429557   -0.27345189
     atom    5 type  2   force =    -0.00000000    0.00000000    0.00000000
     atom    6 type  2   force =     0.00000000   -0.00000000   -0.00000000
     atom    7 type  3   force =    -0.00000000    0.00000000    0.00000000
     atom    8 type  3   force =     0.00000000   -0.00000000   -0.00000000
     atom    9 type  4   force =   -10.21990192    2.29788072   -0.88559443
     atom   10 type  4   force =    10.21990192   -2.13598660    1.22559968
     atom   11 type  4   force =     2.98874681    9.01717768   -4.50209151
     atom   12 type  4   force =    -2.98874681   -9.17907180    4.16208626
     atom   13 type  4   force =     2.98874681    9.17907180   -4.16208626
     atom   14 type  4   force =   -10.21990192    2.13598660   -1.22559968
     atom   15 type  4   force =    -2.98874681   -9.01717768    4.50209151
     atom   16 type  4   force =    10.21990192   -2.29788073    0.88559443
     The local contribution  to forces
     atom    1 type  1   force =     1.04910879    0.53348846   -0.23252762
     atom    2 type  1   force =    -1.03869135   -0.52475986    0.24293127
     atom    3 type  1   force =     1.03778591    0.52409648   -0.24267491
     atom    4 type  1   force =    -1.04824796   -0.53307816    0.23239643
     atom    5 type  2   force =     0.02064974   -0.02489179    0.06401118
     atom    6 type  2   force =    -0.02106479    0.02531432   -0.06467095
     atom    7 type  3   force =     0.07560037    0.00141054    0.00965484
     atom    8 type  3   force =    -0.07659195   -0.00237109   -0.00912620
     atom    9 type  4   force =    10.15071465   -2.34086810    1.02096143
     atom   10 type  4   force =   -10.20679186    2.33036913   -1.12908459
     atom   11 type  4   force =    -2.88193140   -9.14247387    4.36365168
     atom   12 type  4   force =     2.91168123    9.15434036   -4.23815316
     atom   13 type  4   force =    -2.91155835   -9.15418113    4.23882759
     atom   14 type  4   force =    10.20658893   -2.33118372    1.12897545
     atom   15 type  4   force =     2.88170280    9.14251904   -4.36324876
     atom   16 type  4   force =   -10.15062463    2.34111005   -1.02143316
     The core correction contribution to forces
     atom    1 type  1   force =    -0.00325465   -0.00171880    0.00352899
     atom    2 type  1   force =     0.00324991    0.00299627   -0.00229925
     atom    3 type  1   force =    -0.00327399   -0.00307539    0.00232154
     atom    4 type  1   force =     0.00322419    0.00166392   -0.00349241
     atom    5 type  2   force =     0.00712057   -0.00100670   -0.00079292
     atom    6 type  2   force =    -0.00711104    0.00100719    0.00074882
     atom    7 type  3   force =     0.00000000    0.00000000    0.00000000
     atom    8 type  3   force =     0.00000000    0.00000000    0.00000000
     atom    9 type  4   force =     0.02442869   -0.05193189    0.05682659
     atom   10 type  4   force =    -0.02647549    0.10832888    0.03506136
     atom   11 type  4   force =     0.05379472   -0.09724348   -0.05026276
     atom   12 type  4   force =    -0.04480030    0.03982802   -0.04764553
     atom   13 type  4   force =     0.04478284   -0.03973806    0.04769346
     atom   14 type  4   force =     0.02638594   -0.10860881   -0.03502528
     atom   15 type  4   force =    -0.05378559    0.09724009    0.05026928
     atom   16 type  4   force =    -0.02443871    0.05202875   -0.05675830
     The Hubbard contrib.    to forces
     atom    1 type  1   force =     0.00000000    0.00000000    0.00000000
     atom    2 type  1   force =     0.00000000    0.00000000    0.00000000
     atom    3 type  1   force =     0.00000000    0.00000000    0.00000000
     atom    4 type  1   force =     0.00000000    0.00000000    0.00000000
     atom    5 type  2   force =     0.00000000    0.00000000    0.00000000
     atom    6 type  2   force =     0.00000000    0.00000000    0.00000000
     atom    7 type  3   force =     0.00000000    0.00000000    0.00000000
     atom    8 type  3   force =     0.00000000    0.00000000    0.00000000
     atom    9 type  4   force =     0.00000000    0.00000000    0.00000000
     atom   10 type  4   force =     0.00000000    0.00000000    0.00000000
     atom   11 type  4   force =     0.00000000    0.00000000    0.00000000
     atom   12 type  4   force =     0.00000000    0.00000000    0.00000000
     atom   13 type  4   force =     0.00000000    0.00000000    0.00000000
     atom   14 type  4   force =     0.00000000    0.00000000    0.00000000
     atom   15 type  4   force =     0.00000000    0.00000000    0.00000000
     atom   16 type  4   force =     0.00000000    0.00000000    0.00000000
     The SCF correction term to forces
     atom    1 type  1   force =    -0.00063003   -0.00023784    0.00010503
     atom    2 type  1   force =     0.00022643    0.00025442   -0.00014134
     atom    3 type  1   force =     0.00058229    0.00017631   -0.00008395
     atom    4 type  1   force =    -0.00025695   -0.00021560    0.00010204
     atom    5 type  2   force =     0.00056871    0.00044572   -0.00045381
     atom    6 type  2   force =     0.00006841   -0.00026490    0.00032295
     atom    7 type  3   force =     0.00014762   -0.00057836   -0.00013354
     atom    8 type  3   force =     0.00064667    0.00089883   -0.00000630
     atom    9 type  4   force =    -0.00024612   -0.00012147    0.00028938
     atom   10 type  4   force =     0.00011570    0.00013021    0.00014600
     atom   11 type  4   force =     0.00012808   -0.00009088   -0.00012975
     atom   12 type  4   force =    -0.00026138   -0.00015549   -0.00014090
     atom   13 type  4   force =    -0.00003604    0.00001592   -0.00024705
     atom   14 type  4   force =     0.00004702    0.00034102    0.00010440
     atom   15 type  4   force =     0.00024207   -0.00010970   -0.00022638
     atom   16 type  4   force =     0.00010647    0.00002877    0.00020318

     Total force =     1.951178     Total SCF correction =     0.002083


     Computing stress (Cartesian axis) and pressure

          total   stress  (Ry/bohr**3)                   (kbar)     P=     -263.85
  -0.00234739  -0.00027905  -0.00028982         -345.31      -41.05      -42.63
  -0.00027905  -0.00155292   0.00017679          -41.05     -228.44       26.01
  -0.00028982   0.00017679  -0.00148044          -42.63       26.01     -217.78

     kinetic stress (kbar)   9614.09    -74.68    -19.60
                              -74.68   9759.38     28.88
                              -19.60     28.88   9727.63

     local   stress (kbar)  -2909.61   1303.72   -639.62
                             1303.72  -7786.66  -6835.10
                             -639.62  -6835.10 -18910.80

     nonloc. stress (kbar)   3393.19     22.71     -4.51
                               22.71   3339.05    -29.49
                               -4.51    -29.49   3362.63

     hartree stress (kbar)   2546.74   -568.32    275.87
                             -568.32   4700.25   3034.96
                              275.87   3034.96   9628.34

     exc-cor stress (kbar)   9712.17     -0.24      0.34
                               -0.24   9712.52      1.05
                                0.34      1.05   9714.13

     corecor stress (kbar) -11899.75      1.77     -0.80
                                1.77 -11903.45     -2.88
                               -0.80     -2.88 -11907.88

     ewald   stress (kbar) -10802.13   -726.00    345.69
                             -726.00  -8049.54   3828.59
                              345.69   3828.59  -1831.84

     hubbard stress (kbar)      0.00      0.00      0.00
                                0.00      0.00      0.00
                                0.00      0.00      0.00

     DFT-D   stress (kbar)      0.00      0.00      0.00
                                0.00      0.00      0.00
                                0.00      0.00      0.00

     XDM     stress (kbar)      0.00      0.00      0.00
                                0.00      0.00      0.00
                                0.00      0.00      0.00

     dft-nl  stress (kbar)      0.00      0.00      0.00
                                0.00      0.00      0.00
                                0.00      0.00      0.00

     TS-vdW  stress (kbar)      0.00      0.00      0.00
                                0.00      0.00      0.00
                                0.00      0.00      0.00


                                0.00      0.00      0.00
                                0.00      0.00      0.00


                                0.00      0.00      0.00


     Writing all to output data dir new_calculations/myprefix.save/
 
     init_run     :    697.88s CPU     33.58s WALL (       1 calls)
     electrons    :   2703.00s CPU     92.02s WALL (       1 calls)
     forces       :     31.13s CPU      1.03s WALL (       1 calls)
     stress       :     91.53s CPU      2.99s WALL (       1 calls)

     Called by init_run:
     wfcinit      :    349.18s CPU     12.29s WALL (       1 calls)
     wfcinit:atom :      0.16s CPU      0.01s WALL (       1 calls)
     wfcinit:wfcr :    347.16s CPU     12.22s WALL (       1 calls)
     potinit      :    129.52s CPU      5.21s WALL (       1 calls)
     hinit0       :    196.14s CPU     15.18s WALL (       1 calls)

     Called by electrons:
     c_bands      :   1924.33s CPU     63.42s WALL (      13 calls)
     sum_band     :    465.97s CPU     17.80s WALL (      13 calls)
     v_of_rho     :     80.61s CPU      2.81s WALL (      14 calls)
     v_h          :      5.59s CPU      0.19s WALL (      14 calls)
     v_xc         :     84.43s CPU      2.94s WALL (      16 calls)
     newd         :    171.78s CPU      5.97s WALL (      14 calls)
     PAW_pot      :     59.12s CPU      2.02s WALL (      14 calls)
     mix_rho      :     11.86s CPU      0.40s WALL (      13 calls)

     Called by c_bands:
     init_us_2    :      0.80s CPU      0.03s WALL (      27 calls)
     init_us_2:cp :      0.75s CPU      0.03s WALL (      27 calls)
     regterg      :   1920.60s CPU     63.30s WALL (      13 calls)

     Called by sum_band:
     sum_band:wei :      0.02s CPU      0.00s WALL (      13 calls)
     sum_band:loo :    323.83s CPU     10.54s WALL (      13 calls)
     sum_band:buf :      0.01s CPU      0.00s WALL (      13 calls)
     sum_band:ini :      0.29s CPU      0.01s WALL (      13 calls)
     sum_band:cal :      1.23s CPU      0.04s WALL (      13 calls)
     sum_band:bec :      0.52s CPU      0.02s WALL (      13 calls)
     addusdens    :    133.82s CPU      6.98s WALL (      13 calls)
     addusd:skk   :      1.26s CPU      0.07s WALL (      39 calls)
     addusd:dgemm :     15.51s CPU      3.00s WALL (      39 calls)
     addusd:qvan2 :    114.17s CPU      3.76s WALL (      39 calls)

     Called by *egterg:
     rdiaghg      :     15.90s CPU      0.53s WALL (      59 calls)
     regterg:over :      2.81s CPU      0.09s WALL (      46 calls)
     regterg:upda :      2.37s CPU      0.09s WALL (      46 calls)
     regterg:last :      5.94s CPU      0.20s WALL (      27 calls)
     h_psi        :   2228.22s CPU     74.18s WALL (      60 calls)
     s_psi        :      0.97s CPU      0.03s WALL (      60 calls)
     g_psi        :      0.15s CPU      0.00s WALL (      46 calls)

     Called by h_psi:
     h_psi:calbec :      2.99s CPU      0.11s WALL (      60 calls)
     vloc_psi     :   2222.90s CPU     73.98s WALL (      60 calls)
     add_vuspsi   :      1.41s CPU      0.05s WALL (      60 calls)

     General routines
     calbec       :      4.22s CPU      0.15s WALL (      78 calls)
     fft          :    183.82s CPU      8.44s WALL (     172 calls)
     ffts         :    106.00s CPU      4.31s WALL (      27 calls)
     fftw         :   2293.35s CPU     76.03s WALL (    3683 calls)
     interpolate  :    113.09s CPU      4.55s WALL (      14 calls)
 
     Parallel routines

     PAW routines
     PAW_pot      :     59.12s CPU      2.02s WALL (      14 calls)
     PAW_symme    :      0.06s CPU      0.00s WALL (      27 calls)
 
     PWSCF        :  58m50.92s CPU   2m10.88s WALL

 
   This run was terminated on:  19: 5:37  20May2023            

=------------------------------------------------------------------------------=
   JOB DONE.
=------------------------------------------------------------------------------=
