
     Program PWSCF v.7.0 starts on 20May2023 at 20:38:44 

     This program is part of the open-source Quantum ESPRESSO suite
     for quantum simulation of materials; please cite
         "P. Giannozzi et al., J. Phys.:Condens. Matter 21 395502 (2009);
         "P. Giannozzi et al., J. Phys.:Condens. Matter 29 465901 (2017);
         "P. Giannozzi et al., J. Chem. Phys. 152 154105 (2020);
          URL http://www.quantum-espresso.org", 
     in publications or presentations arising from this work. More details at
     http://www.quantum-espresso.org/quote

     Parallel version (MPI & OpenMP), running on      32 processor cores
     Number of MPI processes:                 1
     Threads/MPI process:                    32

     MPI processes distributed on     1 nodes
     171580 MiB available memory on the printing compute node when the environment starts
 
     Reading input from espresso_4651.pwi
Warning: card &CELL ignored
Warning: card / ignored

     Current dimensions of program PWSCF are:
     Max number of different atomic species (ntypx) = 10
     Max number of k-points (npk) =  40000
     Max angular momentum in pseudopotentials (lmaxx) =  4

     gamma-point specific algorithms are used
     Message from routine setup:
     using ibrav=0 with symmetry is DISCOURAGED, use correct ibrav instead

     Subspace diagonalization in iterative solution of the eigenvalue problem:
     a serial algorithm will be used

 
     G-vector sticks info
     --------------------
     sticks:   dense  smooth     PW     G-vecs:    dense   smooth      PW
     Sum        1827     915    227                39451    14059    1761
 
     Using Slab Decomposition
 


     bravais-lattice index     =            0
     lattice parameter (alat)  =      13.0685  a.u.
     unit-cell volume          =     629.3248 (a.u.)^3
     number of atoms/cell      =            4
     number of atomic types    =            3
     number of electrons       =        35.00
     number of Kohn-Sham states=           22
     kinetic-energy cutoff     =      30.0000  Ry
     charge density cutoff     =     240.0000  Ry
     scf convergence threshold =      1.0E-06
     mixing beta               =       0.7000
     number of iterations used =            8  plain     mixing
     Exchange-correlation= SLA  PW   PBE  PBE
                           (   1   4   3   4   0   0   0)

     celldm(1)=  13.068452  celldm(2)=   0.000000  celldm(3)=   0.000000
     celldm(4)=   0.000000  celldm(5)=   0.000000  celldm(6)=   0.000000

     crystal axes: (cart. coord. in units of alat)
               a(1) = (   1.000000   0.000000   0.000000 )  
               a(2) = (   0.826912   0.562331   0.000000 )  
               a(3) = (   0.826912   0.254527   0.501430 )  

     reciprocal axes: (cart. coord. in units 2 pi/alat)
               b(1) = (  1.000000 -1.470508 -0.902675 )  
               b(2) = (  0.000000  1.778312 -0.902675 )  
               b(3) = (  0.000000  0.000000  1.994296 )  


     PseudoPot. # 1 for Li read from file:
     /home/pragov/projects/rrg-bengioy-ad/pragov/crystal_structure_design/SSSP/li_pbe_v1.4.uspp.F.UPF
     MD5 check sum: e912e257baa3777c20ea3d68f190483c
     Pseudo is Ultrasoft, Zval =  3.0
     Generated by new atomic code, or converted to UPF format
     Using radial grid of  751 points,  5 beta functions with: 
                l(1) =   0
                l(2) =   0
                l(3) =   0
                l(4) =   1
                l(5) =   1
     Q(r) pseudized with 10 coefficients,  rinner =    1.150   1.150   1.150


     PseudoPot. # 2 for Dy read from file:
     /home/pragov/projects/rrg-bengioy-ad/pragov/crystal_structure_design/SSSP/Dy.GGA-PBE-paw-v1.0.UPF
     MD5 check sum: 733414aae3e3693a823ce0c917a68f08
     Pseudo is Projector augmented-wave + core cor, Zval = 20.0
     Generated using ATOMPAW code
     Shape of augmentation charge: BESSEL
     Using radial grid of 1112 points,  8 beta functions with: 
                l(1) =   0
                l(2) =   0
                l(3) =   1
                l(4) =   1
                l(5) =   2
                l(6) =   2
                l(7) =   3
                l(8) =   3
     Q(r) pseudized with 0 coefficients 


     PseudoPot. # 3 for Se read from file:
     /home/pragov/projects/rrg-bengioy-ad/pragov/crystal_structure_design/SSSP/Se_pbe_v1.uspp.F.UPF
     MD5 check sum: 1b3568f3a8ae88f9a2a0ad0698632c85
     Pseudo is Ultrasoft + core correction, Zval =  6.0
     Generated by new atomic code, or converted to UPF format
     Using radial grid of  877 points,  6 beta functions with: 
                l(1) =   0
                l(2) =   0
                l(3) =   1
                l(4) =   1
                l(5) =   2
                l(6) =   2
     Q(r) pseudized with  8 coefficients,  rinner =    1.300   1.300   1.300
                                                       1.300   1.300

     atomic species   valence    mass     pseudopotential
        Li             3.00     6.94000     Li( 1.00)
        Dy            20.00   162.50000     Dy( 1.00)
        Se             6.00    78.97100     Se( 1.00)

      2 Sym. Ops., with inversion, found


                                    s                        frac. trans.

      isym =  1     identity                                     

 cryst.   s( 1) = (     1          0          0      )
                  (     0          1          0      )
                  (     0          0          1      )

 cart.    s( 1) = (  1.0000000  0.0000000 -0.0000000 )
                  (  0.0000000  1.0000000 -0.0000000 )
                  (  0.0000000  0.0000000  1.0000000 )


      isym =  2     inversion                                    

 cryst.   s( 2) = (    -1          0          0      )
                  (     0         -1          0      )
                  (     0          0         -1      )

 cart.    s( 2) = ( -1.0000000 -0.0000000  0.0000000 )
                  (  0.0000000 -1.0000000  0.0000000 )
                  (  0.0000000  0.0000000 -1.0000000 )


   Cartesian axes

     site n.     atom                  positions (alat units)
         1           Li  tau(   1) = (   1.3269123   0.4084289   0.2507151  )
         2           Dy  tau(   2) = (   0.0000000   0.0000000   0.0000000  )
         3           Se  tau(   3) = (   0.6608182   0.2034025   0.1248591  )
         4           Se  tau(   4) = (   1.9930063   0.6134553   0.3765711  )

   Crystallographic axes

     site n.     atom                  positions (cryst. coord.)
         1           Li  tau(   1) = (  0.5000000  0.5000000  0.5000000  )
         2           Dy  tau(   2) = (  0.0000000  0.0000000  0.0000000  )
         3           Se  tau(   3) = (  0.2490060  0.2490060  0.2490060  )
         4           Se  tau(   4) = (  0.7509940  0.7509940  0.7509940  )

     number of k points=     1  Methfessel-Paxton smearing, width (Ry)=  0.0010
                       cart. coord. in units 2pi/alat
        k(    1) = (   0.0000000   0.0000000   0.0000000), wk =   2.0000000

                       cryst. coord.
        k(    1) = (   0.0000000   0.0000000   0.0000000), wk =   2.0000000

     Dense  grid:    19726 G-vectors     FFT dimensions: (  72,  72,  72)

     Smooth grid:     7030 G-vectors     FFT dimensions: (  45,  45,  45)

     Dynamical RAM for                 wfc:       0.29 MB

     Dynamical RAM for     wfc (w. buffer):       0.29 MB

     Dynamical RAM for           str. fact:       0.90 MB

     Dynamical RAM for           local pot:       0.00 MB

     Dynamical RAM for          nlocal pot:       1.03 MB

     Dynamical RAM for                qrad:       8.96 MB

     Dynamical RAM for          rho,v,vnew:       9.45 MB

     Dynamical RAM for               rhoin:       3.15 MB

     Dynamical RAM for            rho*nmix:       4.82 MB

     Dynamical RAM for           G-vectors:       1.18 MB

     Dynamical RAM for          h,s,v(r/c):       0.04 MB

     Dynamical RAM for          <psi|beta>:       0.01 MB

     Dynamical RAM for                 psi:       0.59 MB

     Dynamical RAM for                hpsi:       0.59 MB

     Dynamical RAM for                spsi:       0.59 MB

     Dynamical RAM for      wfcinit/wfcrot:       1.25 MB

     Dynamical RAM for           addusdens:     167.65 MB

     Dynamical RAM for          addusforce:     168.43 MB

     Dynamical RAM for         addusstress:     175.18 MB

     Estimated static dynamical RAM per process >      40.40 MB

     Estimated max dynamical RAM per process >     220.39 MB

     Initial potential from superposition of free atoms

     starting charge      34.5453, renormalised to      35.0000
     Starting wfcs are   45 randomized atomic wfcs
     Checking if some PAW data can be deallocated... 

     total cpu time spent up to now is       11.3 secs

     Self-consistent Calculation

     iteration #  1     ecut=    30.00 Ry     beta= 0.70
     Davidson diagonalization with overlap

---- Real-time Memory Report at c_bands before calling an iterative solver
           503 MiB given to the printing process from OS
             0 MiB allocation reported by mallinfo(arena+hblkhd)
        171422 MiB available memory on the node where the printing process lives
------------------
     ethr =  1.00E-02,  avg # of iterations =  2.0

     total cpu time spent up to now is       13.1 secs

     total energy              =    -878.12453870 Ry
     estimated scf accuracy    <       0.55485732 Ry

     iteration #  2     ecut=    30.00 Ry     beta= 0.70
     Davidson diagonalization with overlap

---- Real-time Memory Report at c_bands before calling an iterative solver
           521 MiB given to the printing process from OS
             0 MiB allocation reported by mallinfo(arena+hblkhd)
        171399 MiB available memory on the node where the printing process lives
------------------
     ethr =  1.59E-03,  avg # of iterations =  4.0

     total cpu time spent up to now is       16.0 secs

     total energy              =    -876.75321870 Ry
     estimated scf accuracy    <      20.19384764 Ry

     iteration #  3     ecut=    30.00 Ry     beta= 0.70
     Davidson diagonalization with overlap

---- Real-time Memory Report at c_bands before calling an iterative solver
           531 MiB given to the printing process from OS
             0 MiB allocation reported by mallinfo(arena+hblkhd)
        171389 MiB available memory on the node where the printing process lives
------------------
     ethr =  1.59E-03,  avg # of iterations =  5.0

     total cpu time spent up to now is       18.5 secs

     total energy              =    -877.88477650 Ry
     estimated scf accuracy    <      18.78168351 Ry

     iteration #  4     ecut=    30.00 Ry     beta= 0.70
     Davidson diagonalization with overlap

---- Real-time Memory Report at c_bands before calling an iterative solver
           533 MiB given to the printing process from OS
             0 MiB allocation reported by mallinfo(arena+hblkhd)
        171386 MiB available memory on the node where the printing process lives
------------------
     ethr =  1.59E-03,  avg # of iterations =  6.0

     total cpu time spent up to now is       21.2 secs

     total energy              =    -878.82795387 Ry
     estimated scf accuracy    <       0.38000941 Ry

     iteration #  5     ecut=    30.00 Ry     beta= 0.70
     Davidson diagonalization with overlap

---- Real-time Memory Report at c_bands before calling an iterative solver
           533 MiB given to the printing process from OS
             0 MiB allocation reported by mallinfo(arena+hblkhd)
        171388 MiB available memory on the node where the printing process lives
------------------
     ethr =  1.09E-03,  avg # of iterations =  1.0

     total cpu time spent up to now is       22.9 secs

     total energy              =    -878.95295053 Ry
     estimated scf accuracy    <       0.45985994 Ry

     iteration #  6     ecut=    30.00 Ry     beta= 0.70
     Davidson diagonalization with overlap

---- Real-time Memory Report at c_bands before calling an iterative solver
           533 MiB given to the printing process from OS
             0 MiB allocation reported by mallinfo(arena+hblkhd)
        171387 MiB available memory on the node where the printing process lives
------------------
     ethr =  1.09E-03,  avg # of iterations =  1.0

     total cpu time spent up to now is       24.4 secs

     total energy              =    -878.32341307 Ry
     estimated scf accuracy    <       0.53703145 Ry

     iteration #  7     ecut=    30.00 Ry     beta= 0.70
     Davidson diagonalization with overlap

---- Real-time Memory Report at c_bands before calling an iterative solver
           534 MiB given to the printing process from OS
             0 MiB allocation reported by mallinfo(arena+hblkhd)
        171388 MiB available memory on the node where the printing process lives
------------------
     ethr =  1.09E-03,  avg # of iterations =  2.0

     total cpu time spent up to now is       25.9 secs

     total energy              =    -878.73675815 Ry
     estimated scf accuracy    <       0.44078657 Ry

     iteration #  8     ecut=    30.00 Ry     beta= 0.70
     Davidson diagonalization with overlap

---- Real-time Memory Report at c_bands before calling an iterative solver
           534 MiB given to the printing process from OS
             0 MiB allocation reported by mallinfo(arena+hblkhd)
        171388 MiB available memory on the node where the printing process lives
------------------
     ethr =  1.09E-03,  avg # of iterations =  1.0

     total cpu time spent up to now is       27.4 secs

     total energy              =    -878.66101416 Ry
     estimated scf accuracy    <       0.23116399 Ry

     iteration #  9     ecut=    30.00 Ry     beta= 0.70
     Davidson diagonalization with overlap

---- Real-time Memory Report at c_bands before calling an iterative solver
           534 MiB given to the printing process from OS
             0 MiB allocation reported by mallinfo(arena+hblkhd)
        171389 MiB available memory on the node where the printing process lives
------------------
     ethr =  6.60E-04,  avg # of iterations =  1.0

     total cpu time spent up to now is       28.9 secs

     total energy              =    -878.69936640 Ry
     estimated scf accuracy    <       0.12700387 Ry

     iteration # 10     ecut=    30.00 Ry     beta= 0.70
     Davidson diagonalization with overlap

---- Real-time Memory Report at c_bands before calling an iterative solver
           534 MiB given to the printing process from OS
             0 MiB allocation reported by mallinfo(arena+hblkhd)
        171390 MiB available memory on the node where the printing process lives
------------------
     ethr =  3.63E-04,  avg # of iterations =  1.0

     total cpu time spent up to now is       30.4 secs

     total energy              =    -878.59393127 Ry
     estimated scf accuracy    <       0.20509225 Ry

     iteration # 11     ecut=    30.00 Ry     beta= 0.70
     Davidson diagonalization with overlap

---- Real-time Memory Report at c_bands before calling an iterative solver
           534 MiB given to the printing process from OS
             0 MiB allocation reported by mallinfo(arena+hblkhd)
        171391 MiB available memory on the node where the printing process lives
------------------
     ethr =  3.63E-04,  avg # of iterations =  1.0

     total cpu time spent up to now is       31.9 secs

     total energy              =    -878.66906337 Ry
     estimated scf accuracy    <       0.15539724 Ry

     iteration # 12     ecut=    30.00 Ry     beta= 0.70
     Davidson diagonalization with overlap

---- Real-time Memory Report at c_bands before calling an iterative solver
           534 MiB given to the printing process from OS
             0 MiB allocation reported by mallinfo(arena+hblkhd)
        171393 MiB available memory on the node where the printing process lives
------------------
     ethr =  3.63E-04,  avg # of iterations =  1.0

     total cpu time spent up to now is       33.4 secs

     total energy              =    -878.78883267 Ry
     estimated scf accuracy    <       0.26447917 Ry

     iteration # 13     ecut=    30.00 Ry     beta= 0.70
     Davidson diagonalization with overlap

---- Real-time Memory Report at c_bands before calling an iterative solver
           534 MiB given to the printing process from OS
             0 MiB allocation reported by mallinfo(arena+hblkhd)
        171393 MiB available memory on the node where the printing process lives
------------------
     ethr =  3.63E-04,  avg # of iterations =  1.0

     total cpu time spent up to now is       34.9 secs

     total energy              =    -878.53614720 Ry
     estimated scf accuracy    <       0.26263693 Ry

     iteration # 14     ecut=    30.00 Ry     beta= 0.70
     Davidson diagonalization with overlap

---- Real-time Memory Report at c_bands before calling an iterative solver
           534 MiB given to the printing process from OS
             0 MiB allocation reported by mallinfo(arena+hblkhd)
        171395 MiB available memory on the node where the printing process lives
------------------
     ethr =  3.63E-04,  avg # of iterations =  2.0

     total cpu time spent up to now is       36.6 secs

     total energy              =    -878.59650606 Ry
     estimated scf accuracy    <       0.09938956 Ry

     iteration # 15     ecut=    30.00 Ry     beta= 0.70
     Davidson diagonalization with overlap

---- Real-time Memory Report at c_bands before calling an iterative solver
           534 MiB given to the printing process from OS
             0 MiB allocation reported by mallinfo(arena+hblkhd)
        171395 MiB available memory on the node where the printing process lives
------------------
     ethr =  2.84E-04,  avg # of iterations =  1.0

     total cpu time spent up to now is       38.0 secs

     total energy              =    -878.60933082 Ry
     estimated scf accuracy    <       0.04791263 Ry

     iteration # 16     ecut=    30.00 Ry     beta= 0.70
     Davidson diagonalization with overlap

---- Real-time Memory Report at c_bands before calling an iterative solver
           534 MiB given to the printing process from OS
             0 MiB allocation reported by mallinfo(arena+hblkhd)
        171396 MiB available memory on the node where the printing process lives
------------------
     ethr =  1.37E-04,  avg # of iterations =  1.0

     total cpu time spent up to now is       39.9 secs

     total energy              =    -878.60892736 Ry
     estimated scf accuracy    <       0.05841310 Ry

     iteration # 17     ecut=    30.00 Ry     beta= 0.70
     Davidson diagonalization with overlap

---- Real-time Memory Report at c_bands before calling an iterative solver
           534 MiB given to the printing process from OS
             0 MiB allocation reported by mallinfo(arena+hblkhd)
        171394 MiB available memory on the node where the printing process lives
------------------
     ethr =  1.37E-04,  avg # of iterations =  1.0

     total cpu time spent up to now is       41.4 secs

     total energy              =    -878.60346927 Ry
     estimated scf accuracy    <       0.05405072 Ry

     iteration # 18     ecut=    30.00 Ry     beta= 0.70
     Davidson diagonalization with overlap

---- Real-time Memory Report at c_bands before calling an iterative solver
           534 MiB given to the printing process from OS
             0 MiB allocation reported by mallinfo(arena+hblkhd)
        171395 MiB available memory on the node where the printing process lives
------------------
     ethr =  1.37E-04,  avg # of iterations =  1.0

     total cpu time spent up to now is       43.0 secs

     total energy              =    -878.61534032 Ry
     estimated scf accuracy    <       0.03686248 Ry

     iteration # 19     ecut=    30.00 Ry     beta= 0.70
     Davidson diagonalization with overlap

---- Real-time Memory Report at c_bands before calling an iterative solver
           534 MiB given to the printing process from OS
             0 MiB allocation reported by mallinfo(arena+hblkhd)
        171395 MiB available memory on the node where the printing process lives
------------------
     ethr =  1.05E-04,  avg # of iterations =  1.0

     total cpu time spent up to now is       44.5 secs

     total energy              =    -878.61219074 Ry
     estimated scf accuracy    <       0.04586392 Ry

     iteration # 20     ecut=    30.00 Ry     beta= 0.70
     Davidson diagonalization with overlap

---- Real-time Memory Report at c_bands before calling an iterative solver
           534 MiB given to the printing process from OS
             0 MiB allocation reported by mallinfo(arena+hblkhd)
        171395 MiB available memory on the node where the printing process lives
------------------
     ethr =  1.05E-04,  avg # of iterations =  1.0

     total cpu time spent up to now is       46.4 secs

     total energy              =    -878.61343867 Ry
     estimated scf accuracy    <       0.04684057 Ry

     iteration # 21     ecut=    30.00 Ry     beta= 0.70
     Davidson diagonalization with overlap

---- Real-time Memory Report at c_bands before calling an iterative solver
           534 MiB given to the printing process from OS
             0 MiB allocation reported by mallinfo(arena+hblkhd)
        171387 MiB available memory on the node where the printing process lives
------------------
     ethr =  1.05E-04,  avg # of iterations =  1.0

     total cpu time spent up to now is       47.7 secs

     total energy              =    -878.61639843 Ry
     estimated scf accuracy    <       0.04599720 Ry

     iteration # 22     ecut=    30.00 Ry     beta= 0.70
     Davidson diagonalization with overlap

---- Real-time Memory Report at c_bands before calling an iterative solver
           534 MiB given to the printing process from OS
             0 MiB allocation reported by mallinfo(arena+hblkhd)
        171388 MiB available memory on the node where the printing process lives
------------------
     ethr =  1.05E-04,  avg # of iterations =  1.0

     total cpu time spent up to now is       48.4 secs

     total energy              =    -878.61215666 Ry
     estimated scf accuracy    <       0.04443356 Ry

     iteration # 23     ecut=    30.00 Ry     beta= 0.70
     Davidson diagonalization with overlap

---- Real-time Memory Report at c_bands before calling an iterative solver
           534 MiB given to the printing process from OS
             0 MiB allocation reported by mallinfo(arena+hblkhd)
        171389 MiB available memory on the node where the printing process lives
------------------
     ethr =  1.05E-04,  avg # of iterations =  1.0

     total cpu time spent up to now is       49.0 secs

     total energy              =    -878.61102415 Ry
     estimated scf accuracy    <       0.03249360 Ry

     iteration # 24     ecut=    30.00 Ry     beta= 0.70
     Davidson diagonalization with overlap

---- Real-time Memory Report at c_bands before calling an iterative solver
           534 MiB given to the printing process from OS
             0 MiB allocation reported by mallinfo(arena+hblkhd)
        171390 MiB available memory on the node where the printing process lives
------------------
     ethr =  9.28E-05,  avg # of iterations =  1.0

     total cpu time spent up to now is       49.7 secs

     total energy              =    -878.60691780 Ry
     estimated scf accuracy    <       0.11544751 Ry

     iteration # 25     ecut=    30.00 Ry     beta= 0.70
     Davidson diagonalization with overlap

---- Real-time Memory Report at c_bands before calling an iterative solver
           534 MiB given to the printing process from OS
             0 MiB allocation reported by mallinfo(arena+hblkhd)
        171390 MiB available memory on the node where the printing process lives
------------------
     ethr =  9.28E-05,  avg # of iterations =  1.0

     total cpu time spent up to now is       50.3 secs

     total energy              =    -878.61418113 Ry
     estimated scf accuracy    <       0.04252254 Ry

     iteration # 26     ecut=    30.00 Ry     beta= 0.70
     Davidson diagonalization with overlap

---- Real-time Memory Report at c_bands before calling an iterative solver
           534 MiB given to the printing process from OS
             0 MiB allocation reported by mallinfo(arena+hblkhd)
        171391 MiB available memory on the node where the printing process lives
------------------
     ethr =  9.28E-05,  avg # of iterations =  1.0

     total cpu time spent up to now is       50.9 secs

     total energy              =    -878.61184422 Ry
     estimated scf accuracy    <       0.02116287 Ry

     iteration # 27     ecut=    30.00 Ry     beta= 0.70
     Davidson diagonalization with overlap

---- Real-time Memory Report at c_bands before calling an iterative solver
           534 MiB given to the printing process from OS
             0 MiB allocation reported by mallinfo(arena+hblkhd)
        171391 MiB available memory on the node where the printing process lives
------------------
     ethr =  6.05E-05,  avg # of iterations =  1.0

     total cpu time spent up to now is       51.5 secs

     total energy              =    -878.60862922 Ry
     estimated scf accuracy    <       0.05201508 Ry

     iteration # 28     ecut=    30.00 Ry     beta= 0.70
     Davidson diagonalization with overlap

---- Real-time Memory Report at c_bands before calling an iterative solver
           534 MiB given to the printing process from OS
             0 MiB allocation reported by mallinfo(arena+hblkhd)
        171391 MiB available memory on the node where the printing process lives
------------------
     ethr =  6.05E-05,  avg # of iterations =  1.0

     total cpu time spent up to now is       52.2 secs

     total energy              =    -878.61247580 Ry
     estimated scf accuracy    <       0.01663468 Ry

     iteration # 29     ecut=    30.00 Ry     beta= 0.70
     Davidson diagonalization with overlap

---- Real-time Memory Report at c_bands before calling an iterative solver
           534 MiB given to the printing process from OS
             0 MiB allocation reported by mallinfo(arena+hblkhd)
        171392 MiB available memory on the node where the printing process lives
------------------
     ethr =  4.75E-05,  avg # of iterations =  1.0

     total cpu time spent up to now is       52.8 secs

     total energy              =    -878.61633848 Ry
     estimated scf accuracy    <       0.03478834 Ry

     iteration # 30     ecut=    30.00 Ry     beta= 0.70
     Davidson diagonalization with overlap

---- Real-time Memory Report at c_bands before calling an iterative solver
           534 MiB given to the printing process from OS
             0 MiB allocation reported by mallinfo(arena+hblkhd)
        171392 MiB available memory on the node where the printing process lives
------------------
     ethr =  4.75E-05,  avg # of iterations =  1.0

     total cpu time spent up to now is       53.5 secs

     total energy              =    -878.60753299 Ry
     estimated scf accuracy    <       0.04282932 Ry

     iteration # 31     ecut=    30.00 Ry     beta= 0.70
     Davidson diagonalization with overlap

---- Real-time Memory Report at c_bands before calling an iterative solver
           534 MiB given to the printing process from OS
             0 MiB allocation reported by mallinfo(arena+hblkhd)
        171392 MiB available memory on the node where the printing process lives
------------------
     ethr =  4.75E-05,  avg # of iterations =  1.0

     total cpu time spent up to now is       54.2 secs

     total energy              =    -878.60804671 Ry
     estimated scf accuracy    <       0.06573345 Ry

     iteration # 32     ecut=    30.00 Ry     beta= 0.70
     Davidson diagonalization with overlap

---- Real-time Memory Report at c_bands before calling an iterative solver
           534 MiB given to the printing process from OS
             0 MiB allocation reported by mallinfo(arena+hblkhd)
        171392 MiB available memory on the node where the printing process lives
------------------
     ethr =  4.75E-05,  avg # of iterations =  1.0

     total cpu time spent up to now is       54.8 secs

     total energy              =    -878.61096903 Ry
     estimated scf accuracy    <       0.05962488 Ry

     iteration # 33     ecut=    30.00 Ry     beta= 0.70
     Davidson diagonalization with overlap

---- Real-time Memory Report at c_bands before calling an iterative solver
           534 MiB given to the printing process from OS
             0 MiB allocation reported by mallinfo(arena+hblkhd)
        171393 MiB available memory on the node where the printing process lives
------------------
     ethr =  4.75E-05,  avg # of iterations =  1.0

     total cpu time spent up to now is       55.4 secs

     total energy              =    -878.61300975 Ry
     estimated scf accuracy    <       0.04013080 Ry

     iteration # 34     ecut=    30.00 Ry     beta= 0.70
     Davidson diagonalization with overlap

---- Real-time Memory Report at c_bands before calling an iterative solver
           534 MiB given to the printing process from OS
             0 MiB allocation reported by mallinfo(arena+hblkhd)
        171393 MiB available memory on the node where the printing process lives
------------------
     ethr =  4.75E-05,  avg # of iterations =  1.0

     total cpu time spent up to now is       56.0 secs

     total energy              =    -878.61443345 Ry
     estimated scf accuracy    <       0.01295091 Ry

     iteration # 35     ecut=    30.00 Ry     beta= 0.70
     Davidson diagonalization with overlap

---- Real-time Memory Report at c_bands before calling an iterative solver
           534 MiB given to the printing process from OS
             0 MiB allocation reported by mallinfo(arena+hblkhd)
        171391 MiB available memory on the node where the printing process lives
------------------
     ethr =  3.70E-05,  avg # of iterations =  1.0

     total cpu time spent up to now is       56.7 secs

     total energy              =    -878.61546701 Ry
     estimated scf accuracy    <       0.02787146 Ry

     iteration # 36     ecut=    30.00 Ry     beta= 0.70
     Davidson diagonalization with overlap

---- Real-time Memory Report at c_bands before calling an iterative solver
           534 MiB given to the printing process from OS
             0 MiB allocation reported by mallinfo(arena+hblkhd)
        171393 MiB available memory on the node where the printing process lives
------------------
     ethr =  3.70E-05,  avg # of iterations =  1.0

     total cpu time spent up to now is       57.3 secs

     total energy              =    -878.61174092 Ry
     estimated scf accuracy    <       0.06805753 Ry

     iteration # 37     ecut=    30.00 Ry     beta= 0.70
     Davidson diagonalization with overlap

---- Real-time Memory Report at c_bands before calling an iterative solver
           534 MiB given to the printing process from OS
             0 MiB allocation reported by mallinfo(arena+hblkhd)
        171393 MiB available memory on the node where the printing process lives
------------------
     ethr =  3.70E-05,  avg # of iterations =  1.0

     total cpu time spent up to now is       57.9 secs

     total energy              =    -878.60606286 Ry
     estimated scf accuracy    <       0.03763123 Ry

     iteration # 38     ecut=    30.00 Ry     beta= 0.70
     Davidson diagonalization with overlap

---- Real-time Memory Report at c_bands before calling an iterative solver
           534 MiB given to the printing process from OS
             0 MiB allocation reported by mallinfo(arena+hblkhd)
        171393 MiB available memory on the node where the printing process lives
------------------
     ethr =  3.70E-05,  avg # of iterations =  1.0

     total cpu time spent up to now is       58.6 secs

     total energy              =    -878.61166030 Ry
     estimated scf accuracy    <       0.03938331 Ry

     iteration # 39     ecut=    30.00 Ry     beta= 0.70
     Davidson diagonalization with overlap

---- Real-time Memory Report at c_bands before calling an iterative solver
           534 MiB given to the printing process from OS
             0 MiB allocation reported by mallinfo(arena+hblkhd)
        171394 MiB available memory on the node where the printing process lives
------------------
     ethr =  3.70E-05,  avg # of iterations =  1.0

     total cpu time spent up to now is       59.2 secs

     total energy              =    -878.61298442 Ry
     estimated scf accuracy    <       0.04035890 Ry

     iteration # 40     ecut=    30.00 Ry     beta= 0.70
     Davidson diagonalization with overlap

---- Real-time Memory Report at c_bands before calling an iterative solver
           534 MiB given to the printing process from OS
             0 MiB allocation reported by mallinfo(arena+hblkhd)
        171394 MiB available memory on the node where the printing process lives
------------------
     ethr =  3.70E-05,  avg # of iterations =  1.0

     total cpu time spent up to now is       59.8 secs

     total energy              =    -878.61433335 Ry
     estimated scf accuracy    <       0.01224859 Ry

     iteration # 41     ecut=    30.00 Ry     beta= 0.70
     Davidson diagonalization with overlap

---- Real-time Memory Report at c_bands before calling an iterative solver
           534 MiB given to the printing process from OS
             0 MiB allocation reported by mallinfo(arena+hblkhd)
        171395 MiB available memory on the node where the printing process lives
------------------
     ethr =  3.50E-05,  avg # of iterations =  1.0

     total cpu time spent up to now is       60.4 secs

     total energy              =    -878.61317680 Ry
     estimated scf accuracy    <       0.03467893 Ry

     iteration # 42     ecut=    30.00 Ry     beta= 0.70
     Davidson diagonalization with overlap

---- Real-time Memory Report at c_bands before calling an iterative solver
           534 MiB given to the printing process from OS
             0 MiB allocation reported by mallinfo(arena+hblkhd)
        171396 MiB available memory on the node where the printing process lives
------------------
     ethr =  3.50E-05,  avg # of iterations =  1.0

     total cpu time spent up to now is       61.1 secs

     total energy              =    -878.61056886 Ry
     estimated scf accuracy    <       0.07867658 Ry

     iteration # 43     ecut=    30.00 Ry     beta= 0.70
     Davidson diagonalization with overlap

---- Real-time Memory Report at c_bands before calling an iterative solver
           534 MiB given to the printing process from OS
             0 MiB allocation reported by mallinfo(arena+hblkhd)
        171396 MiB available memory on the node where the printing process lives
------------------
     ethr =  3.50E-05,  avg # of iterations =  1.0

     total cpu time spent up to now is       61.7 secs

     total energy              =    -878.60959269 Ry
     estimated scf accuracy    <       0.05145374 Ry

     iteration # 44     ecut=    30.00 Ry     beta= 0.70
     Davidson diagonalization with overlap

---- Real-time Memory Report at c_bands before calling an iterative solver
           534 MiB given to the printing process from OS
             0 MiB allocation reported by mallinfo(arena+hblkhd)
        171396 MiB available memory on the node where the printing process lives
------------------
     ethr =  3.50E-05,  avg # of iterations =  1.0

     total cpu time spent up to now is       62.3 secs

     total energy              =    -878.61145711 Ry
     estimated scf accuracy    <       0.03448432 Ry

     iteration # 45     ecut=    30.00 Ry     beta= 0.70
     Davidson diagonalization with overlap

---- Real-time Memory Report at c_bands before calling an iterative solver
           534 MiB given to the printing process from OS
             0 MiB allocation reported by mallinfo(arena+hblkhd)
        171396 MiB available memory on the node where the printing process lives
------------------
     ethr =  3.50E-05,  avg # of iterations =  3.0

     total cpu time spent up to now is       63.0 secs

     total energy              =    -878.60833494 Ry
     estimated scf accuracy    <       0.12462205 Ry

     iteration # 46     ecut=    30.00 Ry     beta= 0.70
     Davidson diagonalization with overlap

---- Real-time Memory Report at c_bands before calling an iterative solver
           534 MiB given to the printing process from OS
             0 MiB allocation reported by mallinfo(arena+hblkhd)
        171396 MiB available memory on the node where the printing process lives
------------------
     ethr =  3.50E-05,  avg # of iterations =  3.0

     total cpu time spent up to now is       63.6 secs

     total energy              =    -878.61072523 Ry
     estimated scf accuracy    <       0.09213310 Ry

     iteration # 47     ecut=    30.00 Ry     beta= 0.70
     Davidson diagonalization with overlap

---- Real-time Memory Report at c_bands before calling an iterative solver
           534 MiB given to the printing process from OS
             0 MiB allocation reported by mallinfo(arena+hblkhd)
        171397 MiB available memory on the node where the printing process lives
------------------
     ethr =  3.50E-05,  avg # of iterations =  1.0

     total cpu time spent up to now is       64.3 secs

     total energy              =    -878.61115425 Ry
     estimated scf accuracy    <       0.02232525 Ry

     iteration # 48     ecut=    30.00 Ry     beta= 0.70
     Davidson diagonalization with overlap

---- Real-time Memory Report at c_bands before calling an iterative solver
           534 MiB given to the printing process from OS
             0 MiB allocation reported by mallinfo(arena+hblkhd)
        171397 MiB available memory on the node where the printing process lives
------------------
     ethr =  3.50E-05,  avg # of iterations =  1.0

     total cpu time spent up to now is       64.9 secs

     total energy              =    -878.61238576 Ry
     estimated scf accuracy    <       0.03429576 Ry

     iteration # 49     ecut=    30.00 Ry     beta= 0.70
     Davidson diagonalization with overlap

---- Real-time Memory Report at c_bands before calling an iterative solver
           534 MiB given to the printing process from OS
             0 MiB allocation reported by mallinfo(arena+hblkhd)
        171397 MiB available memory on the node where the printing process lives
------------------
     ethr =  3.50E-05,  avg # of iterations =  1.0

     total cpu time spent up to now is       65.5 secs

     total energy              =    -878.61253518 Ry
     estimated scf accuracy    <       0.02816019 Ry

     iteration # 50     ecut=    30.00 Ry     beta= 0.70
     Davidson diagonalization with overlap

---- Real-time Memory Report at c_bands before calling an iterative solver
           534 MiB given to the printing process from OS
             0 MiB allocation reported by mallinfo(arena+hblkhd)
        171398 MiB available memory on the node where the printing process lives
------------------
     ethr =  3.50E-05,  avg # of iterations =  1.0

     total cpu time spent up to now is       66.1 secs

     total energy              =    -878.61155984 Ry
     estimated scf accuracy    <       0.02227137 Ry

     iteration # 51     ecut=    30.00 Ry     beta= 0.70
     Davidson diagonalization with overlap

---- Real-time Memory Report at c_bands before calling an iterative solver
           534 MiB given to the printing process from OS
             0 MiB allocation reported by mallinfo(arena+hblkhd)
        171398 MiB available memory on the node where the printing process lives
------------------
     ethr =  3.50E-05,  avg # of iterations =  1.0

     total cpu time spent up to now is       66.8 secs

     total energy              =    -878.60705893 Ry
     estimated scf accuracy    <       0.09445604 Ry

     iteration # 52     ecut=    30.00 Ry     beta= 0.70
     Davidson diagonalization with overlap

---- Real-time Memory Report at c_bands before calling an iterative solver
           534 MiB given to the printing process from OS
             0 MiB allocation reported by mallinfo(arena+hblkhd)
        171399 MiB available memory on the node where the printing process lives
------------------
     ethr =  3.50E-05,  avg # of iterations =  1.0

     total cpu time spent up to now is       67.4 secs

     total energy              =    -878.61506920 Ry
     estimated scf accuracy    <       0.02074109 Ry

     iteration # 53     ecut=    30.00 Ry     beta= 0.70
     Davidson diagonalization with overlap

---- Real-time Memory Report at c_bands before calling an iterative solver
           534 MiB given to the printing process from OS
             0 MiB allocation reported by mallinfo(arena+hblkhd)
        171399 MiB available memory on the node where the printing process lives
------------------
     ethr =  3.50E-05,  avg # of iterations =  1.0

     total cpu time spent up to now is       68.0 secs

     total energy              =    -878.60890996 Ry
     estimated scf accuracy    <       0.04720719 Ry

     iteration # 54     ecut=    30.00 Ry     beta= 0.70
     Davidson diagonalization with overlap

---- Real-time Memory Report at c_bands before calling an iterative solver
           534 MiB given to the printing process from OS
             0 MiB allocation reported by mallinfo(arena+hblkhd)
        171398 MiB available memory on the node where the printing process lives
------------------
     ethr =  3.50E-05,  avg # of iterations =  1.0

     total cpu time spent up to now is       68.6 secs

     total energy              =    -878.61346862 Ry
     estimated scf accuracy    <       0.03520869 Ry

     iteration # 55     ecut=    30.00 Ry     beta= 0.70
     Davidson diagonalization with overlap

---- Real-time Memory Report at c_bands before calling an iterative solver
           534 MiB given to the printing process from OS
             0 MiB allocation reported by mallinfo(arena+hblkhd)
        171399 MiB available memory on the node where the printing process lives
------------------
     ethr =  3.50E-05,  avg # of iterations =  1.0

     total cpu time spent up to now is       69.3 secs

     total energy              =    -878.61492113 Ry
     estimated scf accuracy    <       0.01878184 Ry

     iteration # 56     ecut=    30.00 Ry     beta= 0.70
     Davidson diagonalization with overlap

---- Real-time Memory Report at c_bands before calling an iterative solver
           534 MiB given to the printing process from OS
             0 MiB allocation reported by mallinfo(arena+hblkhd)
        171399 MiB available memory on the node where the printing process lives
------------------
     ethr =  3.50E-05,  avg # of iterations =  1.0

     total cpu time spent up to now is       69.9 secs

     total energy              =    -878.61427566 Ry
     estimated scf accuracy    <       0.01526029 Ry

     iteration # 57     ecut=    30.00 Ry     beta= 0.70
     Davidson diagonalization with overlap

---- Real-time Memory Report at c_bands before calling an iterative solver
           534 MiB given to the printing process from OS
             0 MiB allocation reported by mallinfo(arena+hblkhd)
        171398 MiB available memory on the node where the printing process lives
------------------
     ethr =  3.50E-05,  avg # of iterations =  1.0

     total cpu time spent up to now is       70.5 secs

     total energy              =    -878.61297953 Ry
     estimated scf accuracy    <       0.01898200 Ry

     iteration # 58     ecut=    30.00 Ry     beta= 0.70
     Davidson diagonalization with overlap

---- Real-time Memory Report at c_bands before calling an iterative solver
           534 MiB given to the printing process from OS
             0 MiB allocation reported by mallinfo(arena+hblkhd)
        171398 MiB available memory on the node where the printing process lives
------------------
     ethr =  3.50E-05,  avg # of iterations =  1.0

     total cpu time spent up to now is       71.1 secs

     total energy              =    -878.61333878 Ry
     estimated scf accuracy    <       0.01423933 Ry

     iteration # 59     ecut=    30.00 Ry     beta= 0.70
     Davidson diagonalization with overlap

---- Real-time Memory Report at c_bands before calling an iterative solver
           534 MiB given to the printing process from OS
             0 MiB allocation reported by mallinfo(arena+hblkhd)
        171398 MiB available memory on the node where the printing process lives
------------------
     ethr =  3.50E-05,  avg # of iterations =  1.0

     total cpu time spent up to now is       71.8 secs

     total energy              =    -878.60872354 Ry
     estimated scf accuracy    <       0.01812580 Ry

     iteration # 60     ecut=    30.00 Ry     beta= 0.70
     Davidson diagonalization with overlap

---- Real-time Memory Report at c_bands before calling an iterative solver
           534 MiB given to the printing process from OS
             0 MiB allocation reported by mallinfo(arena+hblkhd)
        171399 MiB available memory on the node where the printing process lives
------------------
     ethr =  3.50E-05,  avg # of iterations =  1.0

     total cpu time spent up to now is       72.4 secs

     total energy              =    -878.61324191 Ry
     estimated scf accuracy    <       0.03867422 Ry

     iteration # 61     ecut=    30.00 Ry     beta= 0.70
     Davidson diagonalization with overlap

---- Real-time Memory Report at c_bands before calling an iterative solver
           534 MiB given to the printing process from OS
             0 MiB allocation reported by mallinfo(arena+hblkhd)
        171399 MiB available memory on the node where the printing process lives
------------------
     ethr =  3.50E-05,  avg # of iterations =  1.0

     total cpu time spent up to now is       73.0 secs

     total energy              =    -878.61068572 Ry
     estimated scf accuracy    <       0.08216248 Ry

     iteration # 62     ecut=    30.00 Ry     beta= 0.70
     Davidson diagonalization with overlap

---- Real-time Memory Report at c_bands before calling an iterative solver
           534 MiB given to the printing process from OS
             0 MiB allocation reported by mallinfo(arena+hblkhd)
        171399 MiB available memory on the node where the printing process lives
------------------
     ethr =  3.50E-05,  avg # of iterations =  1.0

     total cpu time spent up to now is       73.6 secs

     total energy              =    -878.61339212 Ry
     estimated scf accuracy    <       0.03514181 Ry

     iteration # 63     ecut=    30.00 Ry     beta= 0.70
     Davidson diagonalization with overlap

---- Real-time Memory Report at c_bands before calling an iterative solver
           534 MiB given to the printing process from OS
             0 MiB allocation reported by mallinfo(arena+hblkhd)
        171399 MiB available memory on the node where the printing process lives
------------------
     ethr =  3.50E-05,  avg # of iterations =  1.0

     total cpu time spent up to now is       74.6 secs

     total energy              =    -878.61198938 Ry
     estimated scf accuracy    <       0.03637373 Ry

     iteration # 64     ecut=    30.00 Ry     beta= 0.70
     Davidson diagonalization with overlap

---- Real-time Memory Report at c_bands before calling an iterative solver
           534 MiB given to the printing process from OS
             0 MiB allocation reported by mallinfo(arena+hblkhd)
        171398 MiB available memory on the node where the printing process lives
------------------
     ethr =  3.50E-05,  avg # of iterations =  1.0

     total cpu time spent up to now is       76.1 secs

     total energy              =    -878.61119246 Ry
     estimated scf accuracy    <       0.04576457 Ry

     iteration # 65     ecut=    30.00 Ry     beta= 0.70
     Davidson diagonalization with overlap

---- Real-time Memory Report at c_bands before calling an iterative solver
           534 MiB given to the printing process from OS
             0 MiB allocation reported by mallinfo(arena+hblkhd)
        171398 MiB available memory on the node where the printing process lives
------------------
     ethr =  3.50E-05,  avg # of iterations =  1.0

     total cpu time spent up to now is       77.3 secs

     total energy              =    -878.61379519 Ry
     estimated scf accuracy    <       0.01913485 Ry

     iteration # 66     ecut=    30.00 Ry     beta= 0.70
     Davidson diagonalization with overlap

---- Real-time Memory Report at c_bands before calling an iterative solver
           534 MiB given to the printing process from OS
             0 MiB allocation reported by mallinfo(arena+hblkhd)
        171397 MiB available memory on the node where the printing process lives
------------------
     ethr =  3.50E-05,  avg # of iterations =  2.0

     total cpu time spent up to now is       77.9 secs

     total energy              =    -878.61190810 Ry
     estimated scf accuracy    <       0.10859774 Ry

     iteration # 67     ecut=    30.00 Ry     beta= 0.70
     Davidson diagonalization with overlap

---- Real-time Memory Report at c_bands before calling an iterative solver
           534 MiB given to the printing process from OS
             0 MiB allocation reported by mallinfo(arena+hblkhd)
        171397 MiB available memory on the node where the printing process lives
------------------
     ethr =  3.50E-05,  avg # of iterations =  1.0

     total cpu time spent up to now is       78.6 secs

     total energy              =    -878.61148366 Ry
     estimated scf accuracy    <       0.02023678 Ry

     iteration # 68     ecut=    30.00 Ry     beta= 0.70
     Davidson diagonalization with overlap

---- Real-time Memory Report at c_bands before calling an iterative solver
           534 MiB given to the printing process from OS
             0 MiB allocation reported by mallinfo(arena+hblkhd)
        171398 MiB available memory on the node where the printing process lives
------------------
     ethr =  3.50E-05,  avg # of iterations =  2.0

     total cpu time spent up to now is       79.2 secs

     total energy              =    -878.59323782 Ry
     estimated scf accuracy    <       0.26980310 Ry

     iteration # 69     ecut=    30.00 Ry     beta= 0.70
     Davidson diagonalization with overlap

---- Real-time Memory Report at c_bands before calling an iterative solver
           534 MiB given to the printing process from OS
             0 MiB allocation reported by mallinfo(arena+hblkhd)
        171397 MiB available memory on the node where the printing process lives
------------------
     ethr =  3.50E-05,  avg # of iterations =  2.0

     total cpu time spent up to now is       79.9 secs

     total energy              =    -878.61032818 Ry
     estimated scf accuracy    <       0.08264143 Ry

     iteration # 70     ecut=    30.00 Ry     beta= 0.70
     Davidson diagonalization with overlap

---- Real-time Memory Report at c_bands before calling an iterative solver
           534 MiB given to the printing process from OS
             0 MiB allocation reported by mallinfo(arena+hblkhd)
        171397 MiB available memory on the node where the printing process lives
------------------
     ethr =  3.50E-05,  avg # of iterations =  1.0

     total cpu time spent up to now is       80.6 secs

     total energy              =    -878.61470487 Ry
     estimated scf accuracy    <       0.03054450 Ry

     iteration # 71     ecut=    30.00 Ry     beta= 0.70
     Davidson diagonalization with overlap

---- Real-time Memory Report at c_bands before calling an iterative solver
           534 MiB given to the printing process from OS
             0 MiB allocation reported by mallinfo(arena+hblkhd)
        171398 MiB available memory on the node where the printing process lives
------------------
     ethr =  3.50E-05,  avg # of iterations =  1.0

     total cpu time spent up to now is       82.0 secs

     total energy              =    -878.61148185 Ry
     estimated scf accuracy    <       0.05525588 Ry

     iteration # 72     ecut=    30.00 Ry     beta= 0.70
     Davidson diagonalization with overlap

---- Real-time Memory Report at c_bands before calling an iterative solver
           534 MiB given to the printing process from OS
             0 MiB allocation reported by mallinfo(arena+hblkhd)
        171399 MiB available memory on the node where the printing process lives
------------------
     ethr =  3.50E-05,  avg # of iterations =  1.0

     total cpu time spent up to now is       83.2 secs

     total energy              =    -878.61611165 Ry
     estimated scf accuracy    <       0.03248460 Ry

     iteration # 73     ecut=    30.00 Ry     beta= 0.70
     Davidson diagonalization with overlap

---- Real-time Memory Report at c_bands before calling an iterative solver
           534 MiB given to the printing process from OS
             0 MiB allocation reported by mallinfo(arena+hblkhd)
        171395 MiB available memory on the node where the printing process lives
------------------
     ethr =  3.50E-05,  avg # of iterations =  1.0

     total cpu time spent up to now is       83.8 secs

     total energy              =    -878.61334066 Ry
     estimated scf accuracy    <       0.03896288 Ry

     iteration # 74     ecut=    30.00 Ry     beta= 0.70
     Davidson diagonalization with overlap

---- Real-time Memory Report at c_bands before calling an iterative solver
           534 MiB given to the printing process from OS
             0 MiB allocation reported by mallinfo(arena+hblkhd)
        171399 MiB available memory on the node where the printing process lives
------------------
     ethr =  3.50E-05,  avg # of iterations =  1.0

     total cpu time spent up to now is       84.4 secs

     total energy              =    -878.61181514 Ry
     estimated scf accuracy    <       0.04912384 Ry

     iteration # 75     ecut=    30.00 Ry     beta= 0.70
     Davidson diagonalization with overlap

---- Real-time Memory Report at c_bands before calling an iterative solver
           534 MiB given to the printing process from OS
             0 MiB allocation reported by mallinfo(arena+hblkhd)
        171399 MiB available memory on the node where the printing process lives
------------------
     ethr =  3.50E-05,  avg # of iterations =  1.0

     total cpu time spent up to now is       85.1 secs

     total energy              =    -878.61169854 Ry
     estimated scf accuracy    <       0.02854926 Ry

     iteration # 76     ecut=    30.00 Ry     beta= 0.70
     Davidson diagonalization with overlap

---- Real-time Memory Report at c_bands before calling an iterative solver
           534 MiB given to the printing process from OS
             0 MiB allocation reported by mallinfo(arena+hblkhd)
        171399 MiB available memory on the node where the printing process lives
------------------
     ethr =  3.50E-05,  avg # of iterations =  1.0

     total cpu time spent up to now is       85.7 secs

     total energy              =    -878.61420653 Ry
     estimated scf accuracy    <       0.01368499 Ry

     iteration # 77     ecut=    30.00 Ry     beta= 0.70
     Davidson diagonalization with overlap

---- Real-time Memory Report at c_bands before calling an iterative solver
           534 MiB given to the printing process from OS
             0 MiB allocation reported by mallinfo(arena+hblkhd)
        171398 MiB available memory on the node where the printing process lives
------------------
     ethr =  3.50E-05,  avg # of iterations =  2.0

     total cpu time spent up to now is       86.3 secs

     total energy              =    -878.60808549 Ry
     estimated scf accuracy    <       0.08312562 Ry

     iteration # 78     ecut=    30.00 Ry     beta= 0.70
     Davidson diagonalization with overlap

---- Real-time Memory Report at c_bands before calling an iterative solver
           534 MiB given to the printing process from OS
             0 MiB allocation reported by mallinfo(arena+hblkhd)
        171399 MiB available memory on the node where the printing process lives
------------------
     ethr =  3.50E-05,  avg # of iterations =  1.0

     total cpu time spent up to now is       87.1 secs

     total energy              =    -878.61271518 Ry
     estimated scf accuracy    <       0.02407626 Ry

     iteration # 79     ecut=    30.00 Ry     beta= 0.70
     Davidson diagonalization with overlap

---- Real-time Memory Report at c_bands before calling an iterative solver
           534 MiB given to the printing process from OS
             0 MiB allocation reported by mallinfo(arena+hblkhd)
        171398 MiB available memory on the node where the printing process lives
------------------
     ethr =  3.50E-05,  avg # of iterations =  1.0

     total cpu time spent up to now is       88.5 secs

     total energy              =    -878.61320912 Ry
     estimated scf accuracy    <       0.03075961 Ry

     iteration # 80     ecut=    30.00 Ry     beta= 0.70
     Davidson diagonalization with overlap

---- Real-time Memory Report at c_bands before calling an iterative solver
           534 MiB given to the printing process from OS
             0 MiB allocation reported by mallinfo(arena+hblkhd)
        171399 MiB available memory on the node where the printing process lives
------------------
     ethr =  3.50E-05,  avg # of iterations =  1.0

     total cpu time spent up to now is       89.9 secs

     total energy              =    -878.61305077 Ry
     estimated scf accuracy    <       0.04189944 Ry

     iteration # 81     ecut=    30.00 Ry     beta= 0.70
     Davidson diagonalization with overlap

---- Real-time Memory Report at c_bands before calling an iterative solver
           534 MiB given to the printing process from OS
             0 MiB allocation reported by mallinfo(arena+hblkhd)
        171399 MiB available memory on the node where the printing process lives
------------------
     ethr =  3.50E-05,  avg # of iterations =  1.0

     total cpu time spent up to now is       90.6 secs

     total energy              =    -878.61216821 Ry
     estimated scf accuracy    <       0.02624844 Ry

     iteration # 82     ecut=    30.00 Ry     beta= 0.70
     Davidson diagonalization with overlap

---- Real-time Memory Report at c_bands before calling an iterative solver
           534 MiB given to the printing process from OS
             0 MiB allocation reported by mallinfo(arena+hblkhd)
        171398 MiB available memory on the node where the printing process lives
------------------
     ethr =  3.50E-05,  avg # of iterations =  1.0

     total cpu time spent up to now is       92.0 secs

     total energy              =    -878.60902356 Ry
     estimated scf accuracy    <       0.03471278 Ry

     iteration # 83     ecut=    30.00 Ry     beta= 0.70
     Davidson diagonalization with overlap

---- Real-time Memory Report at c_bands before calling an iterative solver
           534 MiB given to the printing process from OS
             0 MiB allocation reported by mallinfo(arena+hblkhd)
        171398 MiB available memory on the node where the printing process lives
------------------
     ethr =  3.50E-05,  avg # of iterations =  1.0

     total cpu time spent up to now is       92.6 secs

     total energy              =    -878.60802980 Ry
     estimated scf accuracy    <       0.05363446 Ry

     iteration # 84     ecut=    30.00 Ry     beta= 0.70
     Davidson diagonalization with overlap

---- Real-time Memory Report at c_bands before calling an iterative solver
           534 MiB given to the printing process from OS
             0 MiB allocation reported by mallinfo(arena+hblkhd)
        171397 MiB available memory on the node where the printing process lives
------------------
     ethr =  3.50E-05,  avg # of iterations =  1.0

     total cpu time spent up to now is       93.3 secs

     total energy              =    -878.60665316 Ry
     estimated scf accuracy    <       0.07345036 Ry

     iteration # 85     ecut=    30.00 Ry     beta= 0.70
     Davidson diagonalization with overlap

---- Real-time Memory Report at c_bands before calling an iterative solver
           534 MiB given to the printing process from OS
             0 MiB allocation reported by mallinfo(arena+hblkhd)
        171397 MiB available memory on the node where the printing process lives
------------------
     ethr =  3.50E-05,  avg # of iterations =  1.0

     total cpu time spent up to now is       93.9 secs

     total energy              =    -878.61187375 Ry
     estimated scf accuracy    <       0.03249978 Ry

     iteration # 86     ecut=    30.00 Ry     beta= 0.70
     Davidson diagonalization with overlap

---- Real-time Memory Report at c_bands before calling an iterative solver
           534 MiB given to the printing process from OS
             0 MiB allocation reported by mallinfo(arena+hblkhd)
        171397 MiB available memory on the node where the printing process lives
------------------
     ethr =  3.50E-05,  avg # of iterations =  1.0

     total cpu time spent up to now is       94.6 secs

     total energy              =    -878.61256904 Ry
     estimated scf accuracy    <       0.03485887 Ry

     iteration # 87     ecut=    30.00 Ry     beta= 0.70
     Davidson diagonalization with overlap

---- Real-time Memory Report at c_bands before calling an iterative solver
           534 MiB given to the printing process from OS
             0 MiB allocation reported by mallinfo(arena+hblkhd)
        171396 MiB available memory on the node where the printing process lives
------------------
     ethr =  3.50E-05,  avg # of iterations =  1.0

     total cpu time spent up to now is       95.2 secs

     total energy              =    -878.61381555 Ry
     estimated scf accuracy    <       0.01825789 Ry

     iteration # 88     ecut=    30.00 Ry     beta= 0.70
     Davidson diagonalization with overlap

---- Real-time Memory Report at c_bands before calling an iterative solver
           534 MiB given to the printing process from OS
             0 MiB allocation reported by mallinfo(arena+hblkhd)
        171396 MiB available memory on the node where the printing process lives
------------------
     ethr =  3.50E-05,  avg # of iterations =  1.0

     total cpu time spent up to now is       95.8 secs

     total energy              =    -878.61301832 Ry
     estimated scf accuracy    <       0.00938790 Ry

     iteration # 89     ecut=    30.00 Ry     beta= 0.70
     Davidson diagonalization with overlap

---- Real-time Memory Report at c_bands before calling an iterative solver
           534 MiB given to the printing process from OS
             0 MiB allocation reported by mallinfo(arena+hblkhd)
        171396 MiB available memory on the node where the printing process lives
------------------
     ethr =  2.68E-05,  avg # of iterations =  1.0

     total cpu time spent up to now is       96.4 secs

     total energy              =    -878.61394740 Ry
     estimated scf accuracy    <       0.03672615 Ry

     iteration # 90     ecut=    30.00 Ry     beta= 0.70
     Davidson diagonalization with overlap

---- Real-time Memory Report at c_bands before calling an iterative solver
           534 MiB given to the printing process from OS
             0 MiB allocation reported by mallinfo(arena+hblkhd)
        171396 MiB available memory on the node where the printing process lives
------------------
     ethr =  2.68E-05,  avg # of iterations =  1.0

     total cpu time spent up to now is       97.0 secs

     total energy              =    -878.61421519 Ry
     estimated scf accuracy    <       0.02594468 Ry

     iteration # 91     ecut=    30.00 Ry     beta= 0.70
     Davidson diagonalization with overlap

---- Real-time Memory Report at c_bands before calling an iterative solver
           534 MiB given to the printing process from OS
             0 MiB allocation reported by mallinfo(arena+hblkhd)
        171396 MiB available memory on the node where the printing process lives
------------------
     ethr =  2.68E-05,  avg # of iterations =  1.0

     total cpu time spent up to now is       97.7 secs

     total energy              =    -878.61114676 Ry
     estimated scf accuracy    <       0.02431492 Ry

     iteration # 92     ecut=    30.00 Ry     beta= 0.70
     Davidson diagonalization with overlap

---- Real-time Memory Report at c_bands before calling an iterative solver
           534 MiB given to the printing process from OS
             0 MiB allocation reported by mallinfo(arena+hblkhd)
        171398 MiB available memory on the node where the printing process lives
------------------
     ethr =  2.68E-05,  avg # of iterations =  1.0

     total cpu time spent up to now is       98.3 secs

     total energy              =    -878.61036291 Ry
     estimated scf accuracy    <       0.04470412 Ry

     iteration # 93     ecut=    30.00 Ry     beta= 0.70
     Davidson diagonalization with overlap

---- Real-time Memory Report at c_bands before calling an iterative solver
           534 MiB given to the printing process from OS
             0 MiB allocation reported by mallinfo(arena+hblkhd)
        171398 MiB available memory on the node where the printing process lives
------------------
     ethr =  2.68E-05,  avg # of iterations =  1.0

     total cpu time spent up to now is       98.9 secs

     total energy              =    -878.61435781 Ry
     estimated scf accuracy    <       0.02119555 Ry

     iteration # 94     ecut=    30.00 Ry     beta= 0.70
     Davidson diagonalization with overlap

---- Real-time Memory Report at c_bands before calling an iterative solver
           534 MiB given to the printing process from OS
             0 MiB allocation reported by mallinfo(arena+hblkhd)
        171397 MiB available memory on the node where the printing process lives
------------------
     ethr =  2.68E-05,  avg # of iterations =  1.0

     total cpu time spent up to now is       99.6 secs

     total energy              =    -878.61379694 Ry
     estimated scf accuracy    <       0.02673384 Ry

     iteration # 95     ecut=    30.00 Ry     beta= 0.70
     Davidson diagonalization with overlap

---- Real-time Memory Report at c_bands before calling an iterative solver
           534 MiB given to the printing process from OS
             0 MiB allocation reported by mallinfo(arena+hblkhd)
        171397 MiB available memory on the node where the printing process lives
------------------
     ethr =  2.68E-05,  avg # of iterations =  1.0

     total cpu time spent up to now is      100.8 secs

     total energy              =    -878.61393595 Ry
     estimated scf accuracy    <       0.00730925 Ry

     iteration # 96     ecut=    30.00 Ry     beta= 0.70
     Davidson diagonalization with overlap

---- Real-time Memory Report at c_bands before calling an iterative solver
           534 MiB given to the printing process from OS
             0 MiB allocation reported by mallinfo(arena+hblkhd)
        171399 MiB available memory on the node where the printing process lives
------------------
     ethr =  2.09E-05,  avg # of iterations =  1.0

     total cpu time spent up to now is      101.4 secs

     total energy              =    -878.61325105 Ry
     estimated scf accuracy    <       0.01059016 Ry

     iteration # 97     ecut=    30.00 Ry     beta= 0.70
     Davidson diagonalization with overlap

---- Real-time Memory Report at c_bands before calling an iterative solver
           534 MiB given to the printing process from OS
             0 MiB allocation reported by mallinfo(arena+hblkhd)
        171399 MiB available memory on the node where the printing process lives
------------------
     ethr =  2.09E-05,  avg # of iterations =  1.0

     total cpu time spent up to now is      102.0 secs

     total energy              =    -878.61388568 Ry
     estimated scf accuracy    <       0.01012247 Ry

     iteration # 98     ecut=    30.00 Ry     beta= 0.70
     Davidson diagonalization with overlap

---- Real-time Memory Report at c_bands before calling an iterative solver
           534 MiB given to the printing process from OS
             0 MiB allocation reported by mallinfo(arena+hblkhd)
        171399 MiB available memory on the node where the printing process lives
------------------
     ethr =  2.09E-05,  avg # of iterations =  1.0

     total cpu time spent up to now is      102.7 secs

     total energy              =    -878.61447344 Ry
     estimated scf accuracy    <       0.00262189 Ry

     iteration # 99     ecut=    30.00 Ry     beta= 0.70
     Davidson diagonalization with overlap

---- Real-time Memory Report at c_bands before calling an iterative solver
           534 MiB given to the printing process from OS
             0 MiB allocation reported by mallinfo(arena+hblkhd)
        171401 MiB available memory on the node where the printing process lives
------------------
     ethr =  7.49E-06,  avg # of iterations =  1.0

     total cpu time spent up to now is      103.4 secs

     total energy              =    -878.61396885 Ry
     estimated scf accuracy    <       0.02393799 Ry

     iteration #100     ecut=    30.00 Ry     beta= 0.70
     Davidson diagonalization with overlap

---- Real-time Memory Report at c_bands before calling an iterative solver
           534 MiB given to the printing process from OS
             0 MiB allocation reported by mallinfo(arena+hblkhd)
        171400 MiB available memory on the node where the printing process lives
------------------
     ethr =  7.49E-06,  avg # of iterations =  1.0

     total cpu time spent up to now is      104.0 secs

     total energy              =    -878.61108903 Ry
     estimated scf accuracy    <       0.02469505 Ry

     End of self-consistent calculation

     convergence NOT achieved after 100 iterations: stopping

     Writing config to output data dir new_calculations/myprefix.save/
     Message from routine punch:
     wavefunctions written to file
 
     init_run     :    254.65s CPU     10.95s WALL (       1 calls)
     electrons    :   2751.56s CPU     92.94s WALL (       1 calls)

     Called by init_run:
     wfcinit      :     61.46s CPU      2.24s WALL (       1 calls)
     wfcinit:atom :      0.00s CPU      0.00s WALL (       1 calls)
     wfcinit:wfcr :     61.36s CPU      2.24s WALL (       1 calls)
     potinit      :     46.01s CPU      1.67s WALL (       1 calls)
     hinit0       :    137.74s CPU      6.64s WALL (       1 calls)

     Called by electrons:
     c_bands      :    894.28s CPU     29.79s WALL (     100 calls)
     sum_band     :    582.64s CPU     20.25s WALL (     100 calls)
     v_of_rho     :    120.00s CPU      4.05s WALL (     101 calls)
     v_h          :      7.77s CPU      0.26s WALL (     101 calls)
     v_xc         :    111.95s CPU      3.78s WALL (     101 calls)
     newd         :    352.07s CPU     11.83s WALL (     101 calls)
     PAW_pot      :    760.05s CPU     25.58s WALL (     101 calls)
     mix_rho      :     21.02s CPU      0.70s WALL (     100 calls)

     Called by c_bands:
     init_us_2    :      2.83s CPU      0.10s WALL (     201 calls)
     init_us_2:cp :      2.52s CPU      0.09s WALL (     201 calls)
     regterg      :    884.73s CPU     29.47s WALL (     100 calls)

     Called by sum_band:
     sum_band:wei :      0.33s CPU      0.01s WALL (     100 calls)
     sum_band:loo :    211.87s CPU      7.06s WALL (     100 calls)
     sum_band:buf :      0.08s CPU      0.00s WALL (     100 calls)
     sum_band:ini :      1.63s CPU      0.06s WALL (     100 calls)
     sum_band:cal :      8.89s CPU      0.30s WALL (     100 calls)
     sum_band:bec :      0.40s CPU      0.01s WALL (     100 calls)
     addusdens    :    356.26s CPU     12.69s WALL (     100 calls)
     addusd:skk   :      0.72s CPU      0.02s WALL (     300 calls)
     addusd:dgemm :     28.26s CPU      1.87s WALL (     300 calls)
     addusd:qvan2 :    319.14s CPU     10.52s WALL (     300 calls)

     Called by *egterg:
     rdiaghg      :      4.50s CPU      0.15s WALL (     223 calls)
     regterg:over :      5.90s CPU      0.21s WALL (     123 calls)
     regterg:upda :      0.81s CPU      0.03s WALL (     123 calls)
     regterg:last :      0.71s CPU      0.02s WALL (     113 calls)
     h_psi        :    923.38s CPU     30.93s WALL (     224 calls)
     s_psi        :      0.46s CPU      0.02s WALL (     224 calls)
     g_psi        :      0.23s CPU      0.01s WALL (     123 calls)

     Called by h_psi:
     h_psi:calbec :     18.97s CPU      0.65s WALL (     224 calls)
     vloc_psi     :    902.05s CPU     30.20s WALL (     224 calls)
     add_vuspsi   :      0.92s CPU      0.03s WALL (     224 calls)

     General routines
     calbec       :     27.33s CPU      0.93s WALL (     324 calls)
     fft          :    143.55s CPU      5.70s WALL (    1111 calls)
     ffts         :     38.71s CPU      1.39s WALL (     201 calls)
     fftw         :   1028.23s CPU     34.38s WALL (    5660 calls)
     interpolate  :     46.39s CPU      1.65s WALL (     101 calls)
     davcio       :      0.00s CPU      0.05s WALL (      19 calls)
 
     Parallel routines

     PAW routines
     PAW_pot      :    760.05s CPU     25.58s WALL (     101 calls)
     PAW_symme    :      0.67s CPU      0.02s WALL (     201 calls)
 
     PWSCF        :  50m 6.58s CPU   1m44.32s WALL

 
   This run was terminated on:  20:40:29  20May2023            

=------------------------------------------------------------------------------=
   JOB DONE.
=------------------------------------------------------------------------------=
