
     Program PWSCF v.7.0 starts on 21May2023 at  4:26:24 

     This program is part of the open-source Quantum ESPRESSO suite
     for quantum simulation of materials; please cite
         "P. Giannozzi et al., J. Phys.:Condens. Matter 21 395502 (2009);
         "P. Giannozzi et al., J. Phys.:Condens. Matter 29 465901 (2017);
         "P. Giannozzi et al., J. Chem. Phys. 152 154105 (2020);
          URL http://www.quantum-espresso.org", 
     in publications or presentations arising from this work. More details at
     http://www.quantum-espresso.org/quote

     Parallel version (MPI & OpenMP), running on      32 processor cores
     Number of MPI processes:                 1
     Threads/MPI process:                    32

     MPI processes distributed on     1 nodes
     61058 MiB available memory on the printing compute node when the environment starts
 
     Reading input from espresso_23376.pwi
Warning: card &CELL ignored
Warning: card / ignored

     Current dimensions of program PWSCF are:
     Max number of different atomic species (ntypx) = 10
     Max number of k-points (npk) =  40000
     Max angular momentum in pseudopotentials (lmaxx) =  4
     file O.pbe-n-kjpaw_psl.0.1.UPF: wavefunction(s)  2P renormalized

     gamma-point specific algorithms are used
     Message from routine setup:
     using ibrav=0 with symmetry is DISCOURAGED, use correct ibrav instead

     Subspace diagonalization in iterative solution of the eigenvalue problem:
     a serial algorithm will be used

 
     G-vector sticks info
     --------------------
     sticks:   dense  smooth     PW     G-vecs:    dense   smooth      PW
     Sum        2029    1019    251                97183    34389    4323
 
     Using Slab Decomposition
 


     bravais-lattice index     =            0
     lattice parameter (alat)  =      10.0654  a.u.
     unit-cell volume          =    1548.3758 (a.u.)^3
     number of atoms/cell      =           20
     number of atomic types    =            3
     number of electrons       =       204.00
     number of Kohn-Sham states=          122
     kinetic-energy cutoff     =      30.0000  Ry
     charge density cutoff     =     240.0000  Ry
     scf convergence threshold =      1.0E-06
     mixing beta               =       0.7000
     number of iterations used =            8  plain     mixing
     Exchange-correlation= SLA  PW   PBX  PBC
                           (   1   4   3   4   0   0   0)

     celldm(1)=  10.065426  celldm(2)=   0.000000  celldm(3)=   0.000000
     celldm(4)=   0.000000  celldm(5)=   0.000000  celldm(6)=   0.000000

     crystal axes: (cart. coord. in units of alat)
               a(1) = (   1.000000   0.000000   0.000000 )  
               a(2) = (   0.000000   1.052662   0.000000 )  
               a(3) = (   0.000000   0.000000   1.442417 )  

     reciprocal axes: (cart. coord. in units 2 pi/alat)
               b(1) = (  1.000000  0.000000  0.000000 )  
               b(2) = (  0.000000  0.949972  0.000000 )  
               b(3) = (  0.000000  0.000000  0.693281 )  


     PseudoPot. # 1 for Tb read from file:
     /home/pragov/projects/rrg-bengioy-ad/pragov/crystal_structure_design/SSSP/Tb.GGA-PBE-paw-v1.0.UPF
     MD5 check sum: f7bf3d58e9b293961564f5b9598c921e
     Pseudo is Projector augmented-wave + core cor, Zval = 19.0
     Generated using ATOMPAW code
     Shape of augmentation charge: BESSEL
     Using radial grid of 1111 points,  8 beta functions with: 
                l(1) =   0
                l(2) =   0
                l(3) =   1
                l(4) =   1
                l(5) =   2
                l(6) =   2
                l(7) =   3
                l(8) =   3
     Q(r) pseudized with 0 coefficients 


     PseudoPot. # 2 for Cr read from file:
     /home/pragov/projects/rrg-bengioy-ad/pragov/crystal_structure_design/SSSP/cr_pbe_v1.5.uspp.F.UPF
     MD5 check sum: 0d52af634a40206e4dee301ad30da4bf
     Pseudo is Ultrasoft + core correction, Zval = 14.0
     Generated by new atomic code, or converted to UPF format
     Using radial grid of  857 points,  6 beta functions with: 
                l(1) =   0
                l(2) =   0
                l(3) =   1
                l(4) =   1
                l(5) =   2
                l(6) =   2
     Q(r) pseudized with  8 coefficients,  rinner =    0.950   0.950   0.950
                                                       0.950   0.950

     PseudoPot. # 3 for O  read from file:
     /home/pragov/projects/rrg-bengioy-ad/pragov/crystal_structure_design/SSSP/O.pbe-n-kjpaw_psl.0.1.UPF
     MD5 check sum: 0234752ac141de4415c5fc33072bef88
     Pseudo is Projector augmented-wave + core cor, Zval =  6.0
     Generated using "atomic" code by A. Dal Corso  v.5.0.99 svn rev. 10869
     Shape of augmentation charge: BESSEL
     Using radial grid of 1095 points,  4 beta functions with: 
                l(1) =   0
                l(2) =   0
                l(3) =   1
                l(4) =   1
     Q(r) pseudized with 0 coefficients 


     atomic species   valence    mass     pseudopotential
        Tb            19.00   158.92535     Tb( 1.00)
        Cr            14.00    51.99610     Cr( 1.00)
        O              6.00    15.99900     O ( 1.00)

      8 Sym. Ops., with inversion, found ( 6 have fractional translation)


                                    s                        frac. trans.

      isym =  1     identity                                     

 cryst.   s( 1) = (     1          0          0      )
                  (     0          1          0      )
                  (     0          0          1      )

 cart.    s( 1) = (  1.0000000  0.0000000  0.0000000 )
                  (  0.0000000  1.0000000  0.0000000 )
                  (  0.0000000  0.0000000  1.0000000 )


      isym =  2     180 deg rotation - cart. axis [0,0,1]        

 cryst.   s( 2) = (    -1          0          0      )    f =( -0.0000000 )
                  (     0         -1          0      )       (  0.0000000 )
                  (     0          0          1      )       (  0.5000000 )

 cart.    s( 2) = ( -1.0000000  0.0000000  0.0000000 )    f =( -0.0000000 )
                  (  0.0000000 -1.0000000  0.0000000 )       (  0.0000000 )
                  (  0.0000000  0.0000000  1.0000000 )       (  0.7212084 )


      isym =  3     180 deg rotation - cart. axis [0,1,0]        

 cryst.   s( 3) = (    -1          0          0      )    f =(  0.5000000 )
                  (     0          1          0      )       ( -0.5000000 )
                  (     0          0         -1      )       (  0.5000000 )

 cart.    s( 3) = ( -1.0000000  0.0000000  0.0000000 )    f =(  0.5000000 )
                  (  0.0000000  1.0000000  0.0000000 )       ( -0.5263312 )
                  (  0.0000000  0.0000000 -1.0000000 )       (  0.7212084 )


      isym =  4     180 deg rotation - cart. axis [1,0,0]        

 cryst.   s( 4) = (     1          0          0      )    f =(  0.5000000 )
                  (     0         -1          0      )       (  0.5000000 )
                  (     0          0         -1      )       (  0.0000000 )

 cart.    s( 4) = (  1.0000000  0.0000000  0.0000000 )    f =(  0.5000000 )
                  (  0.0000000 -1.0000000  0.0000000 )       (  0.5263312 )
                  (  0.0000000  0.0000000 -1.0000000 )       (  0.0000000 )


      isym =  5     inversion                                    

 cryst.   s( 5) = (    -1          0          0      )
                  (     0         -1          0      )
                  (     0          0         -1      )

 cart.    s( 5) = ( -1.0000000  0.0000000  0.0000000 )
                  (  0.0000000 -1.0000000  0.0000000 )
                  (  0.0000000  0.0000000 -1.0000000 )


      isym =  6     inv. 180 deg rotation - cart. axis [0,0,1]   

 cryst.   s( 6) = (     1          0          0      )    f =(  0.0000000 )
                  (     0          1          0      )       (  0.0000000 )
                  (     0          0         -1      )       (  0.5000000 )

 cart.    s( 6) = (  1.0000000  0.0000000  0.0000000 )    f =(  0.0000000 )
                  (  0.0000000  1.0000000  0.0000000 )       (  0.0000000 )
                  (  0.0000000  0.0000000 -1.0000000 )       (  0.7212084 )


      isym =  7     inv. 180 deg rotation - cart. axis [0,1,0]   

 cryst.   s( 7) = (     1          0          0      )    f =(  0.5000000 )
                  (     0         -1          0      )       (  0.5000000 )
                  (     0          0          1      )       (  0.5000000 )

 cart.    s( 7) = (  1.0000000  0.0000000  0.0000000 )    f =(  0.5000000 )
                  (  0.0000000 -1.0000000  0.0000000 )       (  0.5263312 )
                  (  0.0000000  0.0000000  1.0000000 )       (  0.7212084 )


      isym =  8     inv. 180 deg rotation - cart. axis [1,0,0]   

 cryst.   s( 8) = (    -1          0          0      )    f =(  0.5000000 )
                  (     0          1          0      )       ( -0.5000000 )
                  (     0          0          1      )       (  0.0000000 )

 cart.    s( 8) = ( -1.0000000  0.0000000  0.0000000 )    f =(  0.5000000 )
                  (  0.0000000  1.0000000  0.0000000 )       ( -0.5263312 )
                  (  0.0000000  0.0000000  1.0000000 )       (  0.0000000 )


   Cartesian axes

     site n.     atom                  positions (alat units)
         1           Tb  tau(   1) = (   0.5194300   0.5954733   0.3606042  )
         2           Tb  tau(   2) = (   0.9805700   0.0691420   0.3606042  )
         3           Tb  tau(   3) = (   0.4805700   0.4571892   1.0818126  )
         4           Tb  tau(   4) = (   0.0194300   0.9835204   1.0818126  )
         5           Cr  tau(   5) = (   0.5000000   0.0000000   0.0000000  )
         6           Cr  tau(   6) = (   0.0000000   0.5263312   0.7212084  )
         7           Cr  tau(   7) = (   0.5000000   0.0000000   0.7212084  )
         8           Cr  tau(   8) = (   0.0000000   0.5263312   0.0000000  )
         9           O   tau(   9) = (   0.3888210   1.0106181   0.3606042  )
        10           O   tau(  10) = (   0.1111790   0.4842868   0.3606042  )
        11           O   tau(  11) = (   0.6111790   0.0420444   1.0818126  )
        12           O   tau(  12) = (   0.8888210   0.5683756   1.0818126  )
        13           O   tau(  13) = (   0.8049180   0.8435711   0.0828697  )
        14           O   tau(  14) = (   0.6950820   0.3172398   0.6383387  )
        15           O   tau(  15) = (   0.1950820   0.2090914   0.8040781  )
        16           O   tau(  16) = (   0.3049180   0.7354226   1.3595470  )
        17           O   tau(  17) = (   0.1950820   0.2090914   1.3595470  )
        18           O   tau(  18) = (   0.3049180   0.7354226   0.8040781  )
        19           O   tau(  19) = (   0.8049180   0.8435711   0.6383387  )
        20           O   tau(  20) = (   0.6950820   0.3172398   0.0828697  )

   Crystallographic axes

     site n.     atom                  positions (cryst. coord.)
         1           Tb  tau(   1) = (  0.5194300  0.5656830  0.2500000  )
         2           Tb  tau(   2) = (  0.9805700  0.0656830  0.2500000  )
         3           Tb  tau(   3) = (  0.4805700  0.4343170  0.7500000  )
         4           Tb  tau(   4) = (  0.0194300  0.9343170  0.7500000  )
         5           Cr  tau(   5) = (  0.5000000  0.0000000  0.0000000  )
         6           Cr  tau(   6) = (  0.0000000  0.5000000  0.5000000  )
         7           Cr  tau(   7) = (  0.5000000  0.0000000  0.5000000  )
         8           Cr  tau(   8) = (  0.0000000  0.5000000  0.0000000  )
         9           O   tau(   9) = (  0.3888210  0.9600590  0.2500000  )
        10           O   tau(  10) = (  0.1111790  0.4600590  0.2500000  )
        11           O   tau(  11) = (  0.6111790  0.0399410  0.7500000  )
        12           O   tau(  12) = (  0.8888210  0.5399410  0.7500000  )
        13           O   tau(  13) = (  0.8049180  0.8013690  0.0574520  )
        14           O   tau(  14) = (  0.6950820  0.3013690  0.4425480  )
        15           O   tau(  15) = (  0.1950820  0.1986310  0.5574520  )
        16           O   tau(  16) = (  0.3049180  0.6986310  0.9425480  )
        17           O   tau(  17) = (  0.1950820  0.1986310  0.9425480  )
        18           O   tau(  18) = (  0.3049180  0.6986310  0.5574520  )
        19           O   tau(  19) = (  0.8049180  0.8013690  0.4425480  )
        20           O   tau(  20) = (  0.6950820  0.3013690  0.0574520  )

     number of k points=     1  Methfessel-Paxton smearing, width (Ry)=  0.0010
                       cart. coord. in units 2pi/alat
        k(    1) = (   0.0000000   0.0000000   0.0000000), wk =   2.0000000

                       cryst. coord.
        k(    1) = (   0.0000000   0.0000000   0.0000000), wk =   2.0000000

     Dense  grid:    48592 G-vectors     FFT dimensions: (  50,  54,  72)

     Smooth grid:    17195 G-vectors     FFT dimensions: (  36,  40,  54)

     Dynamical RAM for                 wfc:       4.00 MB

     Dynamical RAM for     wfc (w. buffer):       4.00 MB

     Dynamical RAM for           str. fact:       2.22 MB

     Dynamical RAM for           local pot:       0.00 MB

     Dynamical RAM for          nlocal pot:       9.70 MB

     Dynamical RAM for                qrad:       8.96 MB

     Dynamical RAM for          rho,v,vnew:       6.67 MB

     Dynamical RAM for               rhoin:       2.22 MB

     Dynamical RAM for            rho*nmix:      11.86 MB

     Dynamical RAM for           G-vectors:       2.91 MB

     Dynamical RAM for          h,s,v(r/c):       1.36 MB

     Dynamical RAM for          <psi|beta>:       0.28 MB

     Dynamical RAM for                 psi:       8.00 MB

     Dynamical RAM for                hpsi:       8.00 MB

     Dynamical RAM for                spsi:       8.00 MB

     Dynamical RAM for      wfcinit/wfcrot:      15.23 MB

     Dynamical RAM for           addusdens:     420.41 MB

     Dynamical RAM for          addusforce:     437.23 MB

     Dynamical RAM for         addusstress:     431.53 MB

     Estimated static dynamical RAM per process >      47.07 MB

     Estimated max dynamical RAM per process >     496.17 MB

     Check: negative core charge=   -0.000017

     Initial potential from superposition of free atoms

     starting charge     199.9822, renormalised to     204.0000

     negative rho (up, down):  1.035E-02 0.000E+00
     Starting wfcs are  216 randomized atomic wfcs
     Checking if some PAW data can be deallocated... 

     total cpu time spent up to now is       12.7 secs

     Self-consistent Calculation

     iteration #  1     ecut=    30.00 Ry     beta= 0.70
     Davidson diagonalization with overlap

---- Real-time Memory Report at c_bands before calling an iterative solver
           680 MiB given to the printing process from OS
             0 MiB allocation reported by mallinfo(arena+hblkhd)
         60852 MiB available memory on the node where the printing process lives
------------------
     ethr =  1.00E-02,  avg # of iterations =  2.0

     total cpu time spent up to now is       15.5 secs

     total energy              =   -3997.08546299 Ry
     estimated scf accuracy    <     115.64365680 Ry

     iteration #  2     ecut=    30.00 Ry     beta= 0.70
     Davidson diagonalization with overlap

---- Real-time Memory Report at c_bands before calling an iterative solver
           767 MiB given to the printing process from OS
             0 MiB allocation reported by mallinfo(arena+hblkhd)
         60822 MiB available memory on the node where the printing process lives
------------------
     ethr =  1.00E-02,  avg # of iterations = 12.0

     negative rho (up, down):  3.566E-05 0.000E+00

     total cpu time spent up to now is       19.8 secs

     total energy              =   -4092.90858376 Ry
     estimated scf accuracy    <    1231.73470436 Ry

     iteration #  3     ecut=    30.00 Ry     beta= 0.70
     Davidson diagonalization with overlap

---- Real-time Memory Report at c_bands before calling an iterative solver
           778 MiB given to the printing process from OS
             0 MiB allocation reported by mallinfo(arena+hblkhd)
         60811 MiB available memory on the node where the printing process lives
------------------
     ethr =  1.00E-02,  avg # of iterations =  8.0

     negative rho (up, down):  2.816E-03 0.000E+00

     total cpu time spent up to now is       23.3 secs

     total energy              =   -4141.72744617 Ry
     estimated scf accuracy    <     196.03565826 Ry

     iteration #  4     ecut=    30.00 Ry     beta= 0.70
     Davidson diagonalization with overlap

---- Real-time Memory Report at c_bands before calling an iterative solver
           778 MiB given to the printing process from OS
             0 MiB allocation reported by mallinfo(arena+hblkhd)
         60810 MiB available memory on the node where the printing process lives
------------------
     ethr =  1.00E-02,  avg # of iterations =  4.0

     negative rho (up, down):  3.552E-03 0.000E+00

     total cpu time spent up to now is       26.2 secs

     total energy              =   -4137.92749752 Ry
     estimated scf accuracy    <     161.76186147 Ry

     iteration #  5     ecut=    30.00 Ry     beta= 0.70
     Davidson diagonalization with overlap

---- Real-time Memory Report at c_bands before calling an iterative solver
           779 MiB given to the printing process from OS
             0 MiB allocation reported by mallinfo(arena+hblkhd)
         60812 MiB available memory on the node where the printing process lives
------------------
     ethr =  1.00E-02,  avg # of iterations =  2.0

     negative rho (up, down):  5.336E-03 0.000E+00

     total cpu time spent up to now is       29.0 secs

     total energy              =   -4127.01613613 Ry
     estimated scf accuracy    <     151.05681274 Ry

     iteration #  6     ecut=    30.00 Ry     beta= 0.70
     Davidson diagonalization with overlap

---- Real-time Memory Report at c_bands before calling an iterative solver
           779 MiB given to the printing process from OS
             0 MiB allocation reported by mallinfo(arena+hblkhd)
         60789 MiB available memory on the node where the printing process lives
------------------
     ethr =  1.00E-02,  avg # of iterations =  1.0

     negative rho (up, down):  6.492E-03 0.000E+00

     total cpu time spent up to now is       31.7 secs

     total energy              =   -4121.03797257 Ry
     estimated scf accuracy    <     129.27501858 Ry

     iteration #  7     ecut=    30.00 Ry     beta= 0.70
     Davidson diagonalization with overlap

---- Real-time Memory Report at c_bands before calling an iterative solver
           779 MiB given to the printing process from OS
             0 MiB allocation reported by mallinfo(arena+hblkhd)
         60848 MiB available memory on the node where the printing process lives
------------------
     ethr =  1.00E-02,  avg # of iterations =  1.0

     negative rho (up, down):  6.492E-03 0.000E+00

     total cpu time spent up to now is       34.4 secs

     total energy              =   -4122.36736867 Ry
     estimated scf accuracy    <      81.35798282 Ry

     iteration #  8     ecut=    30.00 Ry     beta= 0.70
     Davidson diagonalization with overlap

---- Real-time Memory Report at c_bands before calling an iterative solver
           779 MiB given to the printing process from OS
             0 MiB allocation reported by mallinfo(arena+hblkhd)
         60860 MiB available memory on the node where the printing process lives
------------------
     ethr =  1.00E-02,  avg # of iterations =  1.0

     negative rho (up, down):  6.267E-03 0.000E+00

     total cpu time spent up to now is       37.2 secs

     total energy              =   -4124.28331920 Ry
     estimated scf accuracy    <      80.95409628 Ry

     iteration #  9     ecut=    30.00 Ry     beta= 0.70
     Davidson diagonalization with overlap

---- Real-time Memory Report at c_bands before calling an iterative solver
           779 MiB given to the printing process from OS
             0 MiB allocation reported by mallinfo(arena+hblkhd)
         60862 MiB available memory on the node where the printing process lives
------------------
     ethr =  1.00E-02,  avg # of iterations =  1.0

     negative rho (up, down):  6.725E-03 0.000E+00

     total cpu time spent up to now is       40.0 secs

     total energy              =   -4123.66807933 Ry
     estimated scf accuracy    <     107.19873483 Ry

     iteration # 10     ecut=    30.00 Ry     beta= 0.70
     Davidson diagonalization with overlap

---- Real-time Memory Report at c_bands before calling an iterative solver
           779 MiB given to the printing process from OS
             0 MiB allocation reported by mallinfo(arena+hblkhd)
         60862 MiB available memory on the node where the printing process lives
------------------
     ethr =  1.00E-02,  avg # of iterations =  1.0

     negative rho (up, down):  2.463E-02 0.000E+00

     total cpu time spent up to now is       42.7 secs

     total energy              =   -4051.63754575 Ry
     estimated scf accuracy    <      98.09900642 Ry

     iteration # 11     ecut=    30.00 Ry     beta= 0.70
     Davidson diagonalization with overlap

---- Real-time Memory Report at c_bands before calling an iterative solver
           779 MiB given to the printing process from OS
             0 MiB allocation reported by mallinfo(arena+hblkhd)
         60915 MiB available memory on the node where the printing process lives
------------------
     ethr =  1.00E-02,  avg # of iterations =  6.0

     negative rho (up, down):  9.565E-03 0.000E+00

     total cpu time spent up to now is       46.2 secs

     total energy              =   -4136.36521079 Ry
     estimated scf accuracy    <     513.23715378 Ry

     iteration # 12     ecut=    30.00 Ry     beta= 0.70
     Davidson diagonalization with overlap

---- Real-time Memory Report at c_bands before calling an iterative solver
           779 MiB given to the printing process from OS
             0 MiB allocation reported by mallinfo(arena+hblkhd)
         60912 MiB available memory on the node where the printing process lives
------------------
     ethr =  1.00E-02,  avg # of iterations =  4.0

     negative rho (up, down):  6.914E-03 0.000E+00

     total cpu time spent up to now is       49.3 secs

     total energy              =   -4113.91830765 Ry
     estimated scf accuracy    <     296.80844214 Ry

     iteration # 13     ecut=    30.00 Ry     beta= 0.70
     Davidson diagonalization with overlap

---- Real-time Memory Report at c_bands before calling an iterative solver
           779 MiB given to the printing process from OS
             0 MiB allocation reported by mallinfo(arena+hblkhd)
         60915 MiB available memory on the node where the printing process lives
------------------
     ethr =  1.00E-02,  avg # of iterations =  5.0

     negative rho (up, down):  7.178E-03 0.000E+00

     total cpu time spent up to now is       52.3 secs

     total energy              =   -4118.40492793 Ry
     estimated scf accuracy    <      88.82718185 Ry

     iteration # 14     ecut=    30.00 Ry     beta= 0.70
     Davidson diagonalization with overlap

---- Real-time Memory Report at c_bands before calling an iterative solver
           779 MiB given to the printing process from OS
             0 MiB allocation reported by mallinfo(arena+hblkhd)
         60896 MiB available memory on the node where the printing process lives
------------------
     ethr =  1.00E-02,  avg # of iterations =  1.0

     negative rho (up, down):  7.522E-03 0.000E+00

     total cpu time spent up to now is       55.0 secs

     total energy              =   -4116.43109403 Ry
     estimated scf accuracy    <     109.74030047 Ry

     iteration # 15     ecut=    30.00 Ry     beta= 0.70
     Davidson diagonalization with overlap

---- Real-time Memory Report at c_bands before calling an iterative solver
           779 MiB given to the printing process from OS
             0 MiB allocation reported by mallinfo(arena+hblkhd)
         60895 MiB available memory on the node where the printing process lives
------------------
     ethr =  1.00E-02,  avg # of iterations =  1.0

     negative rho (up, down):  7.939E-03 0.000E+00

     total cpu time spent up to now is       57.7 secs

     total energy              =   -4117.26977899 Ry
     estimated scf accuracy    <      54.86428394 Ry

     iteration # 16     ecut=    30.00 Ry     beta= 0.70
     Davidson diagonalization with overlap

---- Real-time Memory Report at c_bands before calling an iterative solver
           779 MiB given to the printing process from OS
             0 MiB allocation reported by mallinfo(arena+hblkhd)
         60926 MiB available memory on the node where the printing process lives
------------------
     ethr =  1.00E-02,  avg # of iterations =  2.0

     negative rho (up, down):  8.119E-03 0.000E+00

     total cpu time spent up to now is       60.5 secs

     total energy              =   -4116.71343894 Ry
     estimated scf accuracy    <      60.09007835 Ry

     iteration # 17     ecut=    30.00 Ry     beta= 0.70
     Davidson diagonalization with overlap

---- Real-time Memory Report at c_bands before calling an iterative solver
           779 MiB given to the printing process from OS
             0 MiB allocation reported by mallinfo(arena+hblkhd)
         60904 MiB available memory on the node where the printing process lives
------------------
     ethr =  1.00E-02,  avg # of iterations =  1.0

     negative rho (up, down):  8.033E-03 0.000E+00

     total cpu time spent up to now is       63.2 secs

     total energy              =   -4117.00238379 Ry
     estimated scf accuracy    <      20.14260557 Ry

     iteration # 18     ecut=    30.00 Ry     beta= 0.70
     Davidson diagonalization with overlap

---- Real-time Memory Report at c_bands before calling an iterative solver
           779 MiB given to the printing process from OS
             0 MiB allocation reported by mallinfo(arena+hblkhd)
         60879 MiB available memory on the node where the printing process lives
------------------
     ethr =  9.87E-03,  avg # of iterations =  1.0

     negative rho (up, down):  8.605E-03 0.000E+00

     total cpu time spent up to now is       65.9 secs

     total energy              =   -4117.36136253 Ry
     estimated scf accuracy    <      60.53760722 Ry

     iteration # 19     ecut=    30.00 Ry     beta= 0.70
     Davidson diagonalization with overlap

---- Real-time Memory Report at c_bands before calling an iterative solver
           779 MiB given to the printing process from OS
             0 MiB allocation reported by mallinfo(arena+hblkhd)
         60854 MiB available memory on the node where the printing process lives
------------------
     ethr =  9.87E-03,  avg # of iterations =  1.0

     negative rho (up, down):  1.201E-02 0.000E+00

     total cpu time spent up to now is       68.7 secs

     total energy              =   -4116.63977089 Ry
     estimated scf accuracy    <      91.24102222 Ry

     iteration # 20     ecut=    30.00 Ry     beta= 0.70
     Davidson diagonalization with overlap

---- Real-time Memory Report at c_bands before calling an iterative solver
           779 MiB given to the printing process from OS
             0 MiB allocation reported by mallinfo(arena+hblkhd)
         60852 MiB available memory on the node where the printing process lives
------------------
     ethr =  9.87E-03,  avg # of iterations =  3.0

     negative rho (up, down):  1.112E-02 0.000E+00

     total cpu time spent up to now is       71.5 secs

     total energy              =   -4113.48603158 Ry
     estimated scf accuracy    <      90.89432623 Ry

     iteration # 21     ecut=    30.00 Ry     beta= 0.70
     Davidson diagonalization with overlap

---- Real-time Memory Report at c_bands before calling an iterative solver
           779 MiB given to the printing process from OS
             0 MiB allocation reported by mallinfo(arena+hblkhd)
         60888 MiB available memory on the node where the printing process lives
------------------
     ethr =  9.87E-03,  avg # of iterations =  3.0

     negative rho (up, down):  9.579E-03 0.000E+00

     total cpu time spent up to now is       74.3 secs

     total energy              =   -4112.44741048 Ry
     estimated scf accuracy    <     113.49548688 Ry

     iteration # 22     ecut=    30.00 Ry     beta= 0.70
     Davidson diagonalization with overlap

---- Real-time Memory Report at c_bands before calling an iterative solver
           779 MiB given to the printing process from OS
             0 MiB allocation reported by mallinfo(arena+hblkhd)
         60856 MiB available memory on the node where the printing process lives
------------------
     ethr =  9.87E-03,  avg # of iterations =  1.0

     negative rho (up, down):  1.003E-02 0.000E+00

     total cpu time spent up to now is       77.0 secs

     total energy              =   -4116.52317902 Ry
     estimated scf accuracy    <      66.21301412 Ry

     iteration # 23     ecut=    30.00 Ry     beta= 0.70
     Davidson diagonalization with overlap

---- Real-time Memory Report at c_bands before calling an iterative solver
           779 MiB given to the printing process from OS
             0 MiB allocation reported by mallinfo(arena+hblkhd)
         60850 MiB available memory on the node where the printing process lives
------------------
     ethr =  9.87E-03,  avg # of iterations =  1.0

     negative rho (up, down):  9.895E-03 0.000E+00

     total cpu time spent up to now is       79.7 secs

     total energy              =   -4116.73557008 Ry
     estimated scf accuracy    <      92.36811432 Ry

     iteration # 24     ecut=    30.00 Ry     beta= 0.70
     Davidson diagonalization with overlap

---- Real-time Memory Report at c_bands before calling an iterative solver
           779 MiB given to the printing process from OS
             0 MiB allocation reported by mallinfo(arena+hblkhd)
         60852 MiB available memory on the node where the printing process lives
------------------
     ethr =  9.87E-03,  avg # of iterations =  1.0

     negative rho (up, down):  9.936E-03 0.000E+00

     total cpu time spent up to now is       82.9 secs

     total energy              =   -4116.83727620 Ry
     estimated scf accuracy    <      49.72514870 Ry

     iteration # 25     ecut=    30.00 Ry     beta= 0.70
     Davidson diagonalization with overlap

---- Real-time Memory Report at c_bands before calling an iterative solver
           779 MiB given to the printing process from OS
             0 MiB allocation reported by mallinfo(arena+hblkhd)
         60813 MiB available memory on the node where the printing process lives
------------------
     ethr =  9.87E-03,  avg # of iterations =  1.0

     negative rho (up, down):  9.870E-03 0.000E+00

     total cpu time spent up to now is       85.9 secs

     total energy              =   -4116.61794183 Ry
     estimated scf accuracy    <      56.57039507 Ry

     iteration # 26     ecut=    30.00 Ry     beta= 0.70
     Davidson diagonalization with overlap

---- Real-time Memory Report at c_bands before calling an iterative solver
           779 MiB given to the printing process from OS
             0 MiB allocation reported by mallinfo(arena+hblkhd)
         60815 MiB available memory on the node where the printing process lives
------------------
     ethr =  9.87E-03,  avg # of iterations =  1.0

     negative rho (up, down):  9.851E-03 0.000E+00

     total cpu time spent up to now is       88.6 secs

     total energy              =   -4115.42810902 Ry
     estimated scf accuracy    <      91.01127630 Ry

     iteration # 27     ecut=    30.00 Ry     beta= 0.70
     Davidson diagonalization with overlap

---- Real-time Memory Report at c_bands before calling an iterative solver
           779 MiB given to the printing process from OS
             0 MiB allocation reported by mallinfo(arena+hblkhd)
         60816 MiB available memory on the node where the printing process lives
------------------
     ethr =  9.87E-03,  avg # of iterations =  1.0

     negative rho (up, down):  1.118E-02 0.000E+00

     total cpu time spent up to now is       91.3 secs

     total energy              =   -4109.86289805 Ry
     estimated scf accuracy    <      93.70771750 Ry

     iteration # 28     ecut=    30.00 Ry     beta= 0.70
     Davidson diagonalization with overlap

---- Real-time Memory Report at c_bands before calling an iterative solver
           779 MiB given to the printing process from OS
             0 MiB allocation reported by mallinfo(arena+hblkhd)
         60842 MiB available memory on the node where the printing process lives
------------------
     ethr =  9.87E-03,  avg # of iterations =  4.0

     negative rho (up, down):  9.234E-03 0.000E+00

     total cpu time spent up to now is       94.4 secs

     total energy              =   -4109.79879716 Ry
     estimated scf accuracy    <     317.53445605 Ry

     iteration # 29     ecut=    30.00 Ry     beta= 0.70
     Davidson diagonalization with overlap

---- Real-time Memory Report at c_bands before calling an iterative solver
           779 MiB given to the printing process from OS
             0 MiB allocation reported by mallinfo(arena+hblkhd)
         60865 MiB available memory on the node where the printing process lives
------------------
     ethr =  9.87E-03,  avg # of iterations =  7.0

     negative rho (up, down):  1.035E-02 0.000E+00

     total cpu time spent up to now is       97.5 secs

     total energy              =   -4115.82261050 Ry
     estimated scf accuracy    <     173.07807566 Ry

     iteration # 30     ecut=    30.00 Ry     beta= 0.70
     Davidson diagonalization with overlap

---- Real-time Memory Report at c_bands before calling an iterative solver
           779 MiB given to the printing process from OS
             0 MiB allocation reported by mallinfo(arena+hblkhd)
         60871 MiB available memory on the node where the printing process lives
------------------
     ethr =  9.87E-03,  avg # of iterations =  4.0

     negative rho (up, down):  1.025E-02 0.000E+00

     total cpu time spent up to now is      100.4 secs

     total energy              =   -4116.38865214 Ry
     estimated scf accuracy    <     171.09081761 Ry

     iteration # 31     ecut=    30.00 Ry     beta= 0.70
     Davidson diagonalization with overlap

---- Real-time Memory Report at c_bands before calling an iterative solver
           779 MiB given to the printing process from OS
             0 MiB allocation reported by mallinfo(arena+hblkhd)
         60869 MiB available memory on the node where the printing process lives
------------------
     ethr =  9.87E-03,  avg # of iterations =  3.0

     negative rho (up, down):  1.036E-02 0.000E+00

     total cpu time spent up to now is      103.1 secs

     total energy              =   -4117.19029670 Ry
     estimated scf accuracy    <      92.52512888 Ry

     iteration # 32     ecut=    30.00 Ry     beta= 0.70
     Davidson diagonalization with overlap

---- Real-time Memory Report at c_bands before calling an iterative solver
           779 MiB given to the printing process from OS
             0 MiB allocation reported by mallinfo(arena+hblkhd)
         60869 MiB available memory on the node where the printing process lives
------------------
     ethr =  9.87E-03,  avg # of iterations =  1.0

     negative rho (up, down):  1.037E-02 0.000E+00

     total cpu time spent up to now is      105.9 secs

     total energy              =   -4116.08527093 Ry
     estimated scf accuracy    <     112.98274793 Ry

     iteration # 33     ecut=    30.00 Ry     beta= 0.70
     Davidson diagonalization with overlap

---- Real-time Memory Report at c_bands before calling an iterative solver
           779 MiB given to the printing process from OS
             0 MiB allocation reported by mallinfo(arena+hblkhd)
         60870 MiB available memory on the node where the printing process lives
------------------
     ethr =  9.87E-03,  avg # of iterations =  1.0

     negative rho (up, down):  1.031E-02 0.000E+00

     total cpu time spent up to now is      108.6 secs

     total energy              =   -4115.92182126 Ry
     estimated scf accuracy    <      92.90935219 Ry

     iteration # 34     ecut=    30.00 Ry     beta= 0.70
     Davidson diagonalization with overlap

---- Real-time Memory Report at c_bands before calling an iterative solver
           779 MiB given to the printing process from OS
             0 MiB allocation reported by mallinfo(arena+hblkhd)
         60893 MiB available memory on the node where the printing process lives
------------------
     ethr =  9.87E-03,  avg # of iterations =  1.0

     negative rho (up, down):  9.980E-03 0.000E+00

     total cpu time spent up to now is      111.3 secs

     total energy              =   -4115.60028483 Ry
     estimated scf accuracy    <       6.24542166 Ry

     iteration # 35     ecut=    30.00 Ry     beta= 0.70
     Davidson diagonalization with overlap

---- Real-time Memory Report at c_bands before calling an iterative solver
           779 MiB given to the printing process from OS
             0 MiB allocation reported by mallinfo(arena+hblkhd)
         60890 MiB available memory on the node where the printing process lives
------------------
     ethr =  3.06E-03,  avg # of iterations =  3.0

     negative rho (up, down):  1.088E-02 0.000E+00

     total cpu time spent up to now is      114.1 secs

     total energy              =   -4114.55430171 Ry
     estimated scf accuracy    <      86.49856682 Ry

     iteration # 36     ecut=    30.00 Ry     beta= 0.70
     Davidson diagonalization with overlap

---- Real-time Memory Report at c_bands before calling an iterative solver
           779 MiB given to the printing process from OS
             0 MiB allocation reported by mallinfo(arena+hblkhd)
         60894 MiB available memory on the node where the printing process lives
------------------
     ethr =  3.06E-03,  avg # of iterations =  5.0

     negative rho (up, down):  1.014E-02 0.000E+00

     total cpu time spent up to now is      117.1 secs

     total energy              =   -4115.51377782 Ry
     estimated scf accuracy    <     134.13772109 Ry

     iteration # 37     ecut=    30.00 Ry     beta= 0.70
     Davidson diagonalization with overlap

---- Real-time Memory Report at c_bands before calling an iterative solver
           779 MiB given to the printing process from OS
             0 MiB allocation reported by mallinfo(arena+hblkhd)
         60893 MiB available memory on the node where the printing process lives
------------------
     ethr =  3.06E-03,  avg # of iterations =  2.0

     negative rho (up, down):  1.022E-02 0.000E+00

     total cpu time spent up to now is      119.8 secs

     total energy              =   -4115.85719003 Ry
     estimated scf accuracy    <      55.77667357 Ry

     iteration # 38     ecut=    30.00 Ry     beta= 0.70
     Davidson diagonalization with overlap

---- Real-time Memory Report at c_bands before calling an iterative solver
           779 MiB given to the printing process from OS
             0 MiB allocation reported by mallinfo(arena+hblkhd)
         60891 MiB available memory on the node where the printing process lives
------------------
     ethr =  3.06E-03,  avg # of iterations =  1.0

     negative rho (up, down):  1.024E-02 0.000E+00

     total cpu time spent up to now is      122.5 secs

     total energy              =   -4116.38247042 Ry
     estimated scf accuracy    <      36.06171968 Ry

     iteration # 39     ecut=    30.00 Ry     beta= 0.70
     Davidson diagonalization with overlap

---- Real-time Memory Report at c_bands before calling an iterative solver
           779 MiB given to the printing process from OS
             0 MiB allocation reported by mallinfo(arena+hblkhd)
         60873 MiB available memory on the node where the printing process lives
------------------
     ethr =  3.06E-03,  avg # of iterations =  1.0

     negative rho (up, down):  1.038E-02 0.000E+00

     total cpu time spent up to now is      125.2 secs

     total energy              =   -4115.84882904 Ry
     estimated scf accuracy    <      79.19621050 Ry

     iteration # 40     ecut=    30.00 Ry     beta= 0.70
     Davidson diagonalization with overlap

---- Real-time Memory Report at c_bands before calling an iterative solver
           779 MiB given to the printing process from OS
             0 MiB allocation reported by mallinfo(arena+hblkhd)
         60878 MiB available memory on the node where the printing process lives
------------------
     ethr =  3.06E-03,  avg # of iterations =  1.0

     negative rho (up, down):  1.034E-02 0.000E+00

     total cpu time spent up to now is      127.9 secs

     total energy              =   -4116.61626469 Ry
     estimated scf accuracy    <      37.99647918 Ry

     iteration # 41     ecut=    30.00 Ry     beta= 0.70
     Davidson diagonalization with overlap

---- Real-time Memory Report at c_bands before calling an iterative solver
           779 MiB given to the printing process from OS
             0 MiB allocation reported by mallinfo(arena+hblkhd)
         60869 MiB available memory on the node where the printing process lives
------------------
     ethr =  3.06E-03,  avg # of iterations =  1.0

     negative rho (up, down):  1.090E-02 0.000E+00

     total cpu time spent up to now is      130.7 secs

     total energy              =   -4116.31220178 Ry
     estimated scf accuracy    <      22.03133647 Ry

     iteration # 42     ecut=    30.00 Ry     beta= 0.70
     Davidson diagonalization with overlap

---- Real-time Memory Report at c_bands before calling an iterative solver
           780 MiB given to the printing process from OS
             0 MiB allocation reported by mallinfo(arena+hblkhd)
         60868 MiB available memory on the node where the printing process lives
------------------
     ethr =  3.06E-03,  avg # of iterations =  6.0

     negative rho (up, down):  1.064E-02 0.000E+00

     total cpu time spent up to now is      133.5 secs

     total energy              =   -4114.94297366 Ry
     estimated scf accuracy    <     173.25887052 Ry

     iteration # 43     ecut=    30.00 Ry     beta= 0.70
     Davidson diagonalization with overlap

---- Real-time Memory Report at c_bands before calling an iterative solver
           780 MiB given to the printing process from OS
             0 MiB allocation reported by mallinfo(arena+hblkhd)
         60869 MiB available memory on the node where the printing process lives
------------------
     ethr =  3.06E-03,  avg # of iterations =  3.0

     negative rho (up, down):  1.075E-02 0.000E+00

     total cpu time spent up to now is      136.3 secs

     total energy              =   -4115.96500696 Ry
     estimated scf accuracy    <      70.20069169 Ry

     iteration # 44     ecut=    30.00 Ry     beta= 0.70
     Davidson diagonalization with overlap

---- Real-time Memory Report at c_bands before calling an iterative solver
           780 MiB given to the printing process from OS
             0 MiB allocation reported by mallinfo(arena+hblkhd)
         60904 MiB available memory on the node where the printing process lives
------------------
     ethr =  3.06E-03,  avg # of iterations =  2.0

     negative rho (up, down):  1.054E-02 0.000E+00

     total cpu time spent up to now is      139.0 secs

     total energy              =   -4115.88913145 Ry
     estimated scf accuracy    <      18.63199386 Ry

     iteration # 45     ecut=    30.00 Ry     beta= 0.70
     Davidson diagonalization with overlap

---- Real-time Memory Report at c_bands before calling an iterative solver
           780 MiB given to the printing process from OS
             0 MiB allocation reported by mallinfo(arena+hblkhd)
         60853 MiB available memory on the node where the printing process lives
------------------
     ethr =  3.06E-03,  avg # of iterations =  1.0

     negative rho (up, down):  1.047E-02 0.000E+00

     total cpu time spent up to now is      141.7 secs

     total energy              =   -4116.32837918 Ry
     estimated scf accuracy    <      35.88642926 Ry

     iteration # 46     ecut=    30.00 Ry     beta= 0.70
     Davidson diagonalization with overlap

---- Real-time Memory Report at c_bands before calling an iterative solver
           780 MiB given to the printing process from OS
             0 MiB allocation reported by mallinfo(arena+hblkhd)
         60846 MiB available memory on the node where the printing process lives
------------------
     ethr =  3.06E-03,  avg # of iterations =  1.0

     negative rho (up, down):  1.058E-02 0.000E+00

     total cpu time spent up to now is      144.4 secs

     total energy              =   -4116.29094568 Ry
     estimated scf accuracy    <      32.41047439 Ry

     iteration # 47     ecut=    30.00 Ry     beta= 0.70
     Davidson diagonalization with overlap

---- Real-time Memory Report at c_bands before calling an iterative solver
           780 MiB given to the printing process from OS
             0 MiB allocation reported by mallinfo(arena+hblkhd)
         60828 MiB available memory on the node where the printing process lives
------------------
     ethr =  3.06E-03,  avg # of iterations =  1.0

     negative rho (up, down):  1.051E-02 0.000E+00

     total cpu time spent up to now is      147.2 secs

     total energy              =   -4116.20891650 Ry
     estimated scf accuracy    <      20.52437071 Ry

     iteration # 48     ecut=    30.00 Ry     beta= 0.70
     Davidson diagonalization with overlap

---- Real-time Memory Report at c_bands before calling an iterative solver
           780 MiB given to the printing process from OS
             0 MiB allocation reported by mallinfo(arena+hblkhd)
         60824 MiB available memory on the node where the printing process lives
------------------
     ethr =  3.06E-03,  avg # of iterations =  1.0

     negative rho (up, down):  1.067E-02 0.000E+00

     total cpu time spent up to now is      150.0 secs

     total energy              =   -4116.41223910 Ry
     estimated scf accuracy    <      10.32560860 Ry

     iteration # 49     ecut=    30.00 Ry     beta= 0.70
     Davidson diagonalization with overlap

---- Real-time Memory Report at c_bands before calling an iterative solver
           780 MiB given to the printing process from OS
             0 MiB allocation reported by mallinfo(arena+hblkhd)
         60823 MiB available memory on the node where the printing process lives
------------------
     ethr =  3.06E-03,  avg # of iterations =  2.0

     negative rho (up, down):  1.099E-02 0.000E+00

     total cpu time spent up to now is      152.7 secs

     total energy              =   -4114.54984449 Ry
     estimated scf accuracy    <     142.11740071 Ry

     iteration # 50     ecut=    30.00 Ry     beta= 0.70
     Davidson diagonalization with overlap

---- Real-time Memory Report at c_bands before calling an iterative solver
           780 MiB given to the printing process from OS
             0 MiB allocation reported by mallinfo(arena+hblkhd)
         60824 MiB available memory on the node where the printing process lives
------------------
     ethr =  3.06E-03,  avg # of iterations =  8.0

     negative rho (up, down):  1.061E-02 0.000E+00

     total cpu time spent up to now is      155.9 secs

     total energy              =   -4115.31673622 Ry
     estimated scf accuracy    <     237.83663270 Ry

     iteration # 51     ecut=    30.00 Ry     beta= 0.70
     Davidson diagonalization with overlap

---- Real-time Memory Report at c_bands before calling an iterative solver
           780 MiB given to the printing process from OS
             0 MiB allocation reported by mallinfo(arena+hblkhd)
         60846 MiB available memory on the node where the printing process lives
------------------
     ethr =  3.06E-03,  avg # of iterations =  3.0

     negative rho (up, down):  1.054E-02 0.000E+00

     total cpu time spent up to now is      158.8 secs

     total energy              =   -4116.45502689 Ry
     estimated scf accuracy    <      67.04223776 Ry

     iteration # 52     ecut=    30.00 Ry     beta= 0.70
     Davidson diagonalization with overlap

---- Real-time Memory Report at c_bands before calling an iterative solver
           780 MiB given to the printing process from OS
             0 MiB allocation reported by mallinfo(arena+hblkhd)
         60867 MiB available memory on the node where the printing process lives
------------------
     ethr =  3.06E-03,  avg # of iterations =  1.0

     negative rho (up, down):  1.060E-02 0.000E+00

     total cpu time spent up to now is      161.5 secs

     total energy              =   -4116.34252402 Ry
     estimated scf accuracy    <      26.13071833 Ry

     iteration # 53     ecut=    30.00 Ry     beta= 0.70
     Davidson diagonalization with overlap

---- Real-time Memory Report at c_bands before calling an iterative solver
           780 MiB given to the printing process from OS
             0 MiB allocation reported by mallinfo(arena+hblkhd)
         60851 MiB available memory on the node where the printing process lives
------------------
     ethr =  3.06E-03,  avg # of iterations =  3.0

     negative rho (up, down):  1.055E-02 0.000E+00

     total cpu time spent up to now is      164.3 secs

     total energy              =   -4116.38493460 Ry
     estimated scf accuracy    <       4.22621813 Ry

     iteration # 54     ecut=    30.00 Ry     beta= 0.70
     Davidson diagonalization with overlap

---- Real-time Memory Report at c_bands before calling an iterative solver
           780 MiB given to the printing process from OS
             0 MiB allocation reported by mallinfo(arena+hblkhd)
         60848 MiB available memory on the node where the printing process lives
------------------
     ethr =  2.07E-03,  avg # of iterations =  1.0

     negative rho (up, down):  1.066E-02 0.000E+00

     total cpu time spent up to now is      167.0 secs

     total energy              =   -4116.34095522 Ry
     estimated scf accuracy    <      28.25198035 Ry

     iteration # 55     ecut=    30.00 Ry     beta= 0.70
     Davidson diagonalization with overlap

---- Real-time Memory Report at c_bands before calling an iterative solver
           780 MiB given to the printing process from OS
             0 MiB allocation reported by mallinfo(arena+hblkhd)
         60897 MiB available memory on the node where the printing process lives
------------------
     ethr =  2.07E-03,  avg # of iterations =  2.0

     negative rho (up, down):  1.070E-02 0.000E+00

     total cpu time spent up to now is      169.7 secs

     total energy              =   -4116.33796721 Ry
     estimated scf accuracy    <      48.41677579 Ry

     iteration # 56     ecut=    30.00 Ry     beta= 0.70
     Davidson diagonalization with overlap

---- Real-time Memory Report at c_bands before calling an iterative solver
           780 MiB given to the printing process from OS
             0 MiB allocation reported by mallinfo(arena+hblkhd)
         60898 MiB available memory on the node where the printing process lives
------------------
     ethr =  2.07E-03,  avg # of iterations =  2.0

     negative rho (up, down):  1.092E-02 0.000E+00

     total cpu time spent up to now is      173.0 secs

     total energy              =   -4116.25305344 Ry
     estimated scf accuracy    <      84.64700130 Ry

     iteration # 57     ecut=    30.00 Ry     beta= 0.70
     Davidson diagonalization with overlap

---- Real-time Memory Report at c_bands before calling an iterative solver
           780 MiB given to the printing process from OS
             0 MiB allocation reported by mallinfo(arena+hblkhd)
         60876 MiB available memory on the node where the printing process lives
------------------
     ethr =  2.07E-03,  avg # of iterations =  2.0

     negative rho (up, down):  1.071E-02 0.000E+00

     total cpu time spent up to now is      175.8 secs

     total energy              =   -4116.77762142 Ry
     estimated scf accuracy    <      41.63857349 Ry

     iteration # 58     ecut=    30.00 Ry     beta= 0.70
     Davidson diagonalization with overlap

---- Real-time Memory Report at c_bands before calling an iterative solver
           780 MiB given to the printing process from OS
             0 MiB allocation reported by mallinfo(arena+hblkhd)
         60907 MiB available memory on the node where the printing process lives
------------------
     ethr =  2.07E-03,  avg # of iterations =  3.0

     negative rho (up, down):  1.057E-02 0.000E+00

     total cpu time spent up to now is      178.6 secs

     total energy              =   -4116.08144770 Ry
     estimated scf accuracy    <      13.47421913 Ry

     iteration # 59     ecut=    30.00 Ry     beta= 0.70
     Davidson diagonalization with overlap

---- Real-time Memory Report at c_bands before calling an iterative solver
           780 MiB given to the printing process from OS
             0 MiB allocation reported by mallinfo(arena+hblkhd)
         60910 MiB available memory on the node where the printing process lives
------------------
     ethr =  2.07E-03,  avg # of iterations =  1.0

     negative rho (up, down):  1.061E-02 0.000E+00

     total cpu time spent up to now is      181.3 secs

     total energy              =   -4116.34578836 Ry
     estimated scf accuracy    <      29.84030590 Ry

     iteration # 60     ecut=    30.00 Ry     beta= 0.70
     Davidson diagonalization with overlap

---- Real-time Memory Report at c_bands before calling an iterative solver
           780 MiB given to the printing process from OS
             0 MiB allocation reported by mallinfo(arena+hblkhd)
         60912 MiB available memory on the node where the printing process lives
------------------
     ethr =  2.07E-03,  avg # of iterations =  1.0

     negative rho (up, down):  1.058E-02 0.000E+00

     total cpu time spent up to now is      184.1 secs

     total energy              =   -4116.44692016 Ry
     estimated scf accuracy    <       3.73060459 Ry

     iteration # 61     ecut=    30.00 Ry     beta= 0.70
     Davidson diagonalization with overlap

---- Real-time Memory Report at c_bands before calling an iterative solver
           780 MiB given to the printing process from OS
             0 MiB allocation reported by mallinfo(arena+hblkhd)
         60893 MiB available memory on the node where the printing process lives
------------------
     ethr =  1.83E-03,  avg # of iterations =  1.0

     negative rho (up, down):  1.052E-02 0.000E+00

     total cpu time spent up to now is      186.8 secs

     total energy              =   -4116.43876960 Ry
     estimated scf accuracy    <      13.26776171 Ry

     iteration # 62     ecut=    30.00 Ry     beta= 0.70
     Davidson diagonalization with overlap

---- Real-time Memory Report at c_bands before calling an iterative solver
           780 MiB given to the printing process from OS
             0 MiB allocation reported by mallinfo(arena+hblkhd)
         60891 MiB available memory on the node where the printing process lives
------------------
     ethr =  1.83E-03,  avg # of iterations =  1.0

     negative rho (up, down):  1.056E-02 0.000E+00

     total cpu time spent up to now is      189.5 secs

     total energy              =   -4116.11745077 Ry
     estimated scf accuracy    <      82.70123762 Ry

     iteration # 63     ecut=    30.00 Ry     beta= 0.70
     Davidson diagonalization with overlap

---- Real-time Memory Report at c_bands before calling an iterative solver
           780 MiB given to the printing process from OS
             0 MiB allocation reported by mallinfo(arena+hblkhd)
         60895 MiB available memory on the node where the printing process lives
------------------
     ethr =  1.83E-03,  avg # of iterations =  1.0

     negative rho (up, down):  1.028E-02 0.000E+00

     total cpu time spent up to now is      192.2 secs

     total energy              =   -4116.29565191 Ry
     estimated scf accuracy    <      12.11641043 Ry

     iteration # 64     ecut=    30.00 Ry     beta= 0.70
     Davidson diagonalization with overlap

---- Real-time Memory Report at c_bands before calling an iterative solver
           780 MiB given to the printing process from OS
             0 MiB allocation reported by mallinfo(arena+hblkhd)
         60854 MiB available memory on the node where the printing process lives
------------------
     ethr =  1.83E-03,  avg # of iterations =  1.0

     negative rho (up, down):  1.059E-02 0.000E+00

     total cpu time spent up to now is      194.9 secs

     total energy              =   -4115.92737973 Ry
     estimated scf accuracy    <     120.39079297 Ry

     iteration # 65     ecut=    30.00 Ry     beta= 0.70
     Davidson diagonalization with overlap

---- Real-time Memory Report at c_bands before calling an iterative solver
           780 MiB given to the printing process from OS
             0 MiB allocation reported by mallinfo(arena+hblkhd)
         60849 MiB available memory on the node where the printing process lives
------------------
     ethr =  1.83E-03,  avg # of iterations =  2.0

     negative rho (up, down):  1.064E-02 0.000E+00

     total cpu time spent up to now is      197.7 secs

     total energy              =   -4116.26772088 Ry
     estimated scf accuracy    <      29.75331060 Ry

     iteration # 66     ecut=    30.00 Ry     beta= 0.70
     Davidson diagonalization with overlap

---- Real-time Memory Report at c_bands before calling an iterative solver
           780 MiB given to the printing process from OS
             0 MiB allocation reported by mallinfo(arena+hblkhd)
         60848 MiB available memory on the node where the printing process lives
------------------
     ethr =  1.83E-03,  avg # of iterations =  9.0

     negative rho (up, down):  1.078E-02 0.000E+00

     total cpu time spent up to now is      200.6 secs

     total energy              =   -4115.66330110 Ry
     estimated scf accuracy    <     118.55593883 Ry

     iteration # 67     ecut=    30.00 Ry     beta= 0.70
     Davidson diagonalization with overlap

---- Real-time Memory Report at c_bands before calling an iterative solver
           780 MiB given to the printing process from OS
             0 MiB allocation reported by mallinfo(arena+hblkhd)
         60825 MiB available memory on the node where the printing process lives
------------------
     ethr =  1.83E-03,  avg # of iterations =  3.0

     negative rho (up, down):  1.059E-02 0.000E+00

     total cpu time spent up to now is      203.5 secs

     total energy              =   -4116.10633629 Ry
     estimated scf accuracy    <     104.20014212 Ry

     iteration # 68     ecut=    30.00 Ry     beta= 0.70
     Davidson diagonalization with overlap

---- Real-time Memory Report at c_bands before calling an iterative solver
           780 MiB given to the printing process from OS
             0 MiB allocation reported by mallinfo(arena+hblkhd)
         60822 MiB available memory on the node where the printing process lives
------------------
     ethr =  1.83E-03,  avg # of iterations =  1.0

     negative rho (up, down):  1.069E-02 0.000E+00

     total cpu time spent up to now is      206.2 secs

     total energy              =   -4116.84836162 Ry
     estimated scf accuracy    <       6.23396689 Ry

     iteration # 69     ecut=    30.00 Ry     beta= 0.70
     Davidson diagonalization with overlap

---- Real-time Memory Report at c_bands before calling an iterative solver
           780 MiB given to the printing process from OS
             0 MiB allocation reported by mallinfo(arena+hblkhd)
         60823 MiB available memory on the node where the printing process lives
------------------
     ethr =  1.83E-03,  avg # of iterations =  1.0

     negative rho (up, down):  1.060E-02 0.000E+00

     total cpu time spent up to now is      208.9 secs

     total energy              =   -4115.93658731 Ry
     estimated scf accuracy    <      59.04120151 Ry

     iteration # 70     ecut=    30.00 Ry     beta= 0.70
     Davidson diagonalization with overlap

---- Real-time Memory Report at c_bands before calling an iterative solver
           780 MiB given to the printing process from OS
             0 MiB allocation reported by mallinfo(arena+hblkhd)
         60801 MiB available memory on the node where the printing process lives
------------------
     ethr =  1.83E-03,  avg # of iterations =  1.0

     negative rho (up, down):  1.054E-02 0.000E+00

     total cpu time spent up to now is      211.6 secs

     total energy              =   -4115.89008567 Ry
     estimated scf accuracy    <      19.16763524 Ry

     iteration # 71     ecut=    30.00 Ry     beta= 0.70
     Davidson diagonalization with overlap

---- Real-time Memory Report at c_bands before calling an iterative solver
           780 MiB given to the printing process from OS
             0 MiB allocation reported by mallinfo(arena+hblkhd)
         60801 MiB available memory on the node where the printing process lives
------------------
     ethr =  1.83E-03,  avg # of iterations =  2.0

     negative rho (up, down):  1.061E-02 0.000E+00

     total cpu time spent up to now is      214.4 secs

     total energy              =   -4116.59445376 Ry
     estimated scf accuracy    <      12.81344070 Ry

     iteration # 72     ecut=    30.00 Ry     beta= 0.70
     Davidson diagonalization with overlap

---- Real-time Memory Report at c_bands before calling an iterative solver
           780 MiB given to the printing process from OS
             0 MiB allocation reported by mallinfo(arena+hblkhd)
         60801 MiB available memory on the node where the printing process lives
------------------
     ethr =  1.83E-03,  avg # of iterations =  1.0

     negative rho (up, down):  1.062E-02 0.000E+00

     total cpu time spent up to now is      217.1 secs

     total energy              =   -4115.74760697 Ry
     estimated scf accuracy    <      62.95480260 Ry

     iteration # 73     ecut=    30.00 Ry     beta= 0.70
     Davidson diagonalization with overlap

---- Real-time Memory Report at c_bands before calling an iterative solver
           780 MiB given to the printing process from OS
             0 MiB allocation reported by mallinfo(arena+hblkhd)
         60856 MiB available memory on the node where the printing process lives
------------------
     ethr =  1.83E-03,  avg # of iterations =  9.0

     negative rho (up, down):  1.040E-02 0.000E+00

     total cpu time spent up to now is      220.3 secs

     total energy              =   -4115.61062206 Ry
     estimated scf accuracy    <      66.26980669 Ry

     iteration # 74     ecut=    30.00 Ry     beta= 0.70
     Davidson diagonalization with overlap

---- Real-time Memory Report at c_bands before calling an iterative solver
           780 MiB given to the printing process from OS
             0 MiB allocation reported by mallinfo(arena+hblkhd)
         60823 MiB available memory on the node where the printing process lives
------------------
     ethr =  1.83E-03,  avg # of iterations =  3.0

     negative rho (up, down):  1.048E-02 0.000E+00

     total cpu time spent up to now is      223.1 secs

     total energy              =   -4116.32503404 Ry
     estimated scf accuracy    <      65.54581271 Ry

     iteration # 75     ecut=    30.00 Ry     beta= 0.70
     Davidson diagonalization with overlap

---- Real-time Memory Report at c_bands before calling an iterative solver
           780 MiB given to the printing process from OS
             0 MiB allocation reported by mallinfo(arena+hblkhd)
         60851 MiB available memory on the node where the printing process lives
------------------
     ethr =  1.83E-03,  avg # of iterations =  2.0

     negative rho (up, down):  1.048E-02 0.000E+00

     total cpu time spent up to now is      225.8 secs

     total energy              =   -4116.23240933 Ry
     estimated scf accuracy    <      10.41185958 Ry

     iteration # 76     ecut=    30.00 Ry     beta= 0.70
     Davidson diagonalization with overlap

---- Real-time Memory Report at c_bands before calling an iterative solver
           780 MiB given to the printing process from OS
             0 MiB allocation reported by mallinfo(arena+hblkhd)
         60869 MiB available memory on the node where the printing process lives
------------------
     ethr =  1.83E-03,  avg # of iterations =  1.0

     negative rho (up, down):  1.051E-02 0.000E+00

     total cpu time spent up to now is      228.5 secs

     total energy              =   -4116.29003446 Ry
     estimated scf accuracy    <      60.10062936 Ry

     iteration # 77     ecut=    30.00 Ry     beta= 0.70
     Davidson diagonalization with overlap

---- Real-time Memory Report at c_bands before calling an iterative solver
           780 MiB given to the printing process from OS
             0 MiB allocation reported by mallinfo(arena+hblkhd)
         60900 MiB available memory on the node where the printing process lives
------------------
     ethr =  1.83E-03,  avg # of iterations =  1.0

     negative rho (up, down):  1.052E-02 0.000E+00

     total cpu time spent up to now is      231.3 secs

     total energy              =   -4115.86384443 Ry
     estimated scf accuracy    <       5.66810969 Ry

     iteration # 78     ecut=    30.00 Ry     beta= 0.70
     Davidson diagonalization with overlap

---- Real-time Memory Report at c_bands before calling an iterative solver
           780 MiB given to the printing process from OS
             0 MiB allocation reported by mallinfo(arena+hblkhd)
         60914 MiB available memory on the node where the printing process lives
------------------
     ethr =  1.83E-03,  avg # of iterations =  1.0

     negative rho (up, down):  1.105E-02 0.000E+00

     total cpu time spent up to now is      234.0 secs

     total energy              =   -4116.28149705 Ry
     estimated scf accuracy    <      12.71836111 Ry

     iteration # 79     ecut=    30.00 Ry     beta= 0.70
     Davidson diagonalization with overlap

---- Real-time Memory Report at c_bands before calling an iterative solver
           780 MiB given to the printing process from OS
             0 MiB allocation reported by mallinfo(arena+hblkhd)
         60980 MiB available memory on the node where the printing process lives
------------------
     ethr =  1.83E-03,  avg # of iterations =  7.0

     negative rho (up, down):  1.107E-02 0.000E+00

     total cpu time spent up to now is      237.2 secs

     total energy              =   -4115.15754764 Ry
     estimated scf accuracy    <     149.49175293 Ry

     iteration # 80     ecut=    30.00 Ry     beta= 0.70
     Davidson diagonalization with overlap

---- Real-time Memory Report at c_bands before calling an iterative solver
           780 MiB given to the printing process from OS
             0 MiB allocation reported by mallinfo(arena+hblkhd)
         60949 MiB available memory on the node where the printing process lives
------------------
     ethr =  1.83E-03,  avg # of iterations =  5.0

     negative rho (up, down):  1.088E-02 0.000E+00

     total cpu time spent up to now is      240.2 secs

     total energy              =   -4115.64100740 Ry
     estimated scf accuracy    <     113.57029260 Ry

     iteration # 81     ecut=    30.00 Ry     beta= 0.70
     Davidson diagonalization with overlap

---- Real-time Memory Report at c_bands before calling an iterative solver
           780 MiB given to the printing process from OS
             0 MiB allocation reported by mallinfo(arena+hblkhd)
         60949 MiB available memory on the node where the printing process lives
------------------
     ethr =  1.83E-03,  avg # of iterations =  8.0

     negative rho (up, down):  1.062E-02 0.000E+00

     total cpu time spent up to now is      243.1 secs

     total energy              =   -4115.96968752 Ry
     estimated scf accuracy    <      54.82669281 Ry

     iteration # 82     ecut=    30.00 Ry     beta= 0.70
     Davidson diagonalization with overlap

---- Real-time Memory Report at c_bands before calling an iterative solver
           780 MiB given to the printing process from OS
             0 MiB allocation reported by mallinfo(arena+hblkhd)
         60950 MiB available memory on the node where the printing process lives
------------------
     ethr =  1.83E-03,  avg # of iterations =  5.0

     negative rho (up, down):  1.056E-02 0.000E+00

     total cpu time spent up to now is      245.9 secs

     total energy              =   -4116.41472012 Ry
     estimated scf accuracy    <      33.99772537 Ry

     iteration # 83     ecut=    30.00 Ry     beta= 0.70
     Davidson diagonalization with overlap

---- Real-time Memory Report at c_bands before calling an iterative solver
           780 MiB given to the printing process from OS
             0 MiB allocation reported by mallinfo(arena+hblkhd)
         60928 MiB available memory on the node where the printing process lives
------------------
     ethr =  1.83E-03,  avg # of iterations =  7.0

     negative rho (up, down):  1.041E-02 0.000E+00

     total cpu time spent up to now is      248.8 secs

     total energy              =   -4116.02243951 Ry
     estimated scf accuracy    <      70.18811127 Ry

     iteration # 84     ecut=    30.00 Ry     beta= 0.70
     Davidson diagonalization with overlap

---- Real-time Memory Report at c_bands before calling an iterative solver
           780 MiB given to the printing process from OS
             0 MiB allocation reported by mallinfo(arena+hblkhd)
         60910 MiB available memory on the node where the printing process lives
------------------
     ethr =  1.83E-03,  avg # of iterations =  1.0

     negative rho (up, down):  1.049E-02 0.000E+00

     total cpu time spent up to now is      251.5 secs

     total energy              =   -4116.37865113 Ry
     estimated scf accuracy    <      54.26906323 Ry

     iteration # 85     ecut=    30.00 Ry     beta= 0.70
     Davidson diagonalization with overlap

---- Real-time Memory Report at c_bands before calling an iterative solver
           780 MiB given to the printing process from OS
             0 MiB allocation reported by mallinfo(arena+hblkhd)
         60887 MiB available memory on the node where the printing process lives
------------------
     ethr =  1.83E-03,  avg # of iterations =  1.0

     negative rho (up, down):  1.049E-02 0.000E+00

     total cpu time spent up to now is      254.3 secs

     total energy              =   -4116.12727597 Ry
     estimated scf accuracy    <      29.14433140 Ry

     iteration # 86     ecut=    30.00 Ry     beta= 0.70
     Davidson diagonalization with overlap

---- Real-time Memory Report at c_bands before calling an iterative solver
           780 MiB given to the printing process from OS
             0 MiB allocation reported by mallinfo(arena+hblkhd)
         60865 MiB available memory on the node where the printing process lives
------------------
     ethr =  1.83E-03,  avg # of iterations =  1.0

     negative rho (up, down):  1.034E-02 0.000E+00

     total cpu time spent up to now is      257.0 secs

     total energy              =   -4116.06319008 Ry
     estimated scf accuracy    <      76.45142651 Ry

     iteration # 87     ecut=    30.00 Ry     beta= 0.70
     Davidson diagonalization with overlap

---- Real-time Memory Report at c_bands before calling an iterative solver
           780 MiB given to the printing process from OS
             0 MiB allocation reported by mallinfo(arena+hblkhd)
         60819 MiB available memory on the node where the printing process lives
------------------
     ethr =  1.83E-03,  avg # of iterations =  3.0

     negative rho (up, down):  1.050E-02 0.000E+00

     total cpu time spent up to now is      259.8 secs

     total energy              =   -4115.50172313 Ry
     estimated scf accuracy    <      39.69322758 Ry

     iteration # 88     ecut=    30.00 Ry     beta= 0.70
     Davidson diagonalization with overlap

---- Real-time Memory Report at c_bands before calling an iterative solver
           780 MiB given to the printing process from OS
             0 MiB allocation reported by mallinfo(arena+hblkhd)
         60816 MiB available memory on the node where the printing process lives
------------------
     ethr =  1.83E-03,  avg # of iterations =  9.0

     negative rho (up, down):  1.034E-02 0.000E+00

     total cpu time spent up to now is      263.3 secs

     total energy              =   -4115.88416239 Ry
     estimated scf accuracy    <      48.68812163 Ry

     iteration # 89     ecut=    30.00 Ry     beta= 0.70
     Davidson diagonalization with overlap

---- Real-time Memory Report at c_bands before calling an iterative solver
           780 MiB given to the printing process from OS
             0 MiB allocation reported by mallinfo(arena+hblkhd)
         60801 MiB available memory on the node where the printing process lives
------------------
     ethr =  1.83E-03,  avg # of iterations =  2.0

     negative rho (up, down):  1.047E-02 0.000E+00

     total cpu time spent up to now is      266.1 secs

     total energy              =   -4116.52190402 Ry
     estimated scf accuracy    <      18.97723624 Ry

     iteration # 90     ecut=    30.00 Ry     beta= 0.70
     Davidson diagonalization with overlap

---- Real-time Memory Report at c_bands before calling an iterative solver
           780 MiB given to the printing process from OS
             0 MiB allocation reported by mallinfo(arena+hblkhd)
         60803 MiB available memory on the node where the printing process lives
------------------
     ethr =  1.83E-03,  avg # of iterations =  1.0

     negative rho (up, down):  1.045E-02 0.000E+00

     total cpu time spent up to now is      268.8 secs

     total energy              =   -4116.41108834 Ry
     estimated scf accuracy    <      30.68863255 Ry

     iteration # 91     ecut=    30.00 Ry     beta= 0.70
     Davidson diagonalization with overlap

---- Real-time Memory Report at c_bands before calling an iterative solver
           780 MiB given to the printing process from OS
             0 MiB allocation reported by mallinfo(arena+hblkhd)
         60805 MiB available memory on the node where the printing process lives
------------------
     ethr =  1.83E-03,  avg # of iterations =  1.0

     negative rho (up, down):  1.044E-02 0.000E+00

     total cpu time spent up to now is      271.5 secs

     total energy              =   -4116.53142886 Ry
     estimated scf accuracy    <      25.22726351 Ry

     iteration # 92     ecut=    30.00 Ry     beta= 0.70
     Davidson diagonalization with overlap

---- Real-time Memory Report at c_bands before calling an iterative solver
           780 MiB given to the printing process from OS
             0 MiB allocation reported by mallinfo(arena+hblkhd)
         60808 MiB available memory on the node where the printing process lives
------------------
     ethr =  1.83E-03,  avg # of iterations =  1.0

     negative rho (up, down):  1.032E-02 0.000E+00

     total cpu time spent up to now is      274.3 secs

     total energy              =   -4116.77722722 Ry
     estimated scf accuracy    <      31.65610194 Ry

     iteration # 93     ecut=    30.00 Ry     beta= 0.70
     Davidson diagonalization with overlap

---- Real-time Memory Report at c_bands before calling an iterative solver
           780 MiB given to the printing process from OS
             0 MiB allocation reported by mallinfo(arena+hblkhd)
         60807 MiB available memory on the node where the printing process lives
------------------
     ethr =  1.83E-03,  avg # of iterations =  8.0

     negative rho (up, down):  1.056E-02 0.000E+00

     total cpu time spent up to now is      277.3 secs

     total energy              =   -4115.69160438 Ry
     estimated scf accuracy    <      74.66537738 Ry

     iteration # 94     ecut=    30.00 Ry     beta= 0.70
     Davidson diagonalization with overlap

---- Real-time Memory Report at c_bands before calling an iterative solver
           780 MiB given to the printing process from OS
             0 MiB allocation reported by mallinfo(arena+hblkhd)
         60829 MiB available memory on the node where the printing process lives
------------------
     ethr =  1.83E-03,  avg # of iterations =  2.0

     negative rho (up, down):  1.069E-02 0.000E+00

     total cpu time spent up to now is      280.1 secs

     total energy              =   -4115.28193160 Ry
     estimated scf accuracy    <       8.64314615 Ry

     iteration # 95     ecut=    30.00 Ry     beta= 0.70
     Davidson diagonalization with overlap

---- Real-time Memory Report at c_bands before calling an iterative solver
           780 MiB given to the printing process from OS
             0 MiB allocation reported by mallinfo(arena+hblkhd)
         60874 MiB available memory on the node where the printing process lives
------------------
     ethr =  1.83E-03,  avg # of iterations =  3.0

     negative rho (up, down):  1.050E-02 0.000E+00

     total cpu time spent up to now is      282.8 secs

     total energy              =   -4113.17629241 Ry
     estimated scf accuracy    <      42.42038773 Ry

     iteration # 96     ecut=    30.00 Ry     beta= 0.70
     Davidson diagonalization with overlap

---- Real-time Memory Report at c_bands before calling an iterative solver
           780 MiB given to the printing process from OS
             0 MiB allocation reported by mallinfo(arena+hblkhd)
         60897 MiB available memory on the node where the printing process lives
------------------
     ethr =  1.83E-03,  avg # of iterations =  6.0

     negative rho (up, down):  9.597E-03 0.000E+00

     total cpu time spent up to now is      286.5 secs

     total energy              =   -4110.24830333 Ry
     estimated scf accuracy    <     321.52389529 Ry

     iteration # 97     ecut=    30.00 Ry     beta= 0.70
     Davidson diagonalization with overlap

---- Real-time Memory Report at c_bands before calling an iterative solver
           780 MiB given to the printing process from OS
             0 MiB allocation reported by mallinfo(arena+hblkhd)
         60922 MiB available memory on the node where the printing process lives
------------------
     ethr =  1.83E-03,  avg # of iterations =  3.0

     negative rho (up, down):  1.041E-02 0.000E+00

     total cpu time spent up to now is      289.5 secs

     total energy              =   -4116.54331927 Ry
     estimated scf accuracy    <     114.34086934 Ry

     iteration # 98     ecut=    30.00 Ry     beta= 0.70
     Davidson diagonalization with overlap

---- Real-time Memory Report at c_bands before calling an iterative solver
           780 MiB given to the printing process from OS
             0 MiB allocation reported by mallinfo(arena+hblkhd)
         60951 MiB available memory on the node where the printing process lives
------------------
     ethr =  1.83E-03,  avg # of iterations =  6.0

     negative rho (up, down):  1.033E-02 0.000E+00

     total cpu time spent up to now is      292.5 secs

     total energy              =   -4116.61989515 Ry
     estimated scf accuracy    <      80.37691654 Ry

     iteration # 99     ecut=    30.00 Ry     beta= 0.70
     Davidson diagonalization with overlap

---- Real-time Memory Report at c_bands before calling an iterative solver
           780 MiB given to the printing process from OS
             0 MiB allocation reported by mallinfo(arena+hblkhd)
         60942 MiB available memory on the node where the printing process lives
------------------
     ethr =  1.83E-03,  avg # of iterations =  1.0

     negative rho (up, down):  1.051E-02 0.000E+00

     total cpu time spent up to now is      295.2 secs

     total energy              =   -4116.40649342 Ry
     estimated scf accuracy    <      68.42010253 Ry

     iteration #100     ecut=    30.00 Ry     beta= 0.70
     Davidson diagonalization with overlap

---- Real-time Memory Report at c_bands before calling an iterative solver
           780 MiB given to the printing process from OS
             0 MiB allocation reported by mallinfo(arena+hblkhd)
         60942 MiB available memory on the node where the printing process lives
------------------
     ethr =  1.83E-03,  avg # of iterations =  1.0

     negative rho (up, down):  9.475E-03 0.000E+00

     total cpu time spent up to now is      298.0 secs

     total energy              =   -4115.71669629 Ry
     estimated scf accuracy    <      66.30109973 Ry

     End of self-consistent calculation

     convergence NOT achieved after 100 iterations: stopping

     Writing config to output data dir new_calculations/myprefix.save/
     Message from routine punch:
     wavefunctions written to file
 
     init_run     :    312.94s CPU     12.30s WALL (       1 calls)
     electrons    :   8532.13s CPU    285.58s WALL (       1 calls)

     Called by init_run:
     wfcinit      :    132.03s CPU      4.41s WALL (       1 calls)
     wfcinit:atom :      0.19s CPU      0.01s WALL (       1 calls)
     wfcinit:wfcr :    130.78s CPU      4.36s WALL (       1 calls)
     potinit      :     70.45s CPU      2.58s WALL (       1 calls)
     hinit0       :     86.88s CPU      4.45s WALL (       1 calls)

     Called by electrons:
     c_bands      :   2313.22s CPU     73.63s WALL (     100 calls)
     sum_band     :   1011.99s CPU     36.90s WALL (     100 calls)
     v_of_rho     :     91.35s CPU      3.08s WALL (     101 calls)
     v_h          :      6.01s CPU      0.20s WALL (     101 calls)
     v_xc         :     85.11s CPU      2.87s WALL (     101 calls)
     newd         :   1640.22s CPU     55.40s WALL (     101 calls)
     PAW_pot      :   3471.63s CPU    116.52s WALL (     101 calls)
     mix_rho      :     30.60s CPU      1.01s WALL (     100 calls)

     Called by c_bands:
     init_us_2    :      3.93s CPU      0.14s WALL (     201 calls)
     init_us_2:cp :      3.63s CPU      0.13s WALL (     201 calls)
     regterg      :   2284.55s CPU     72.68s WALL (     100 calls)

     Called by sum_band:
     sum_band:wei :      0.56s CPU      0.02s WALL (     100 calls)
     sum_band:loo :    391.66s CPU     12.39s WALL (     100 calls)
     sum_band:buf :      0.08s CPU      0.00s WALL (     100 calls)
     sum_band:ini :      1.85s CPU      0.06s WALL (     100 calls)
     sum_band:cal :      1.92s CPU      0.06s WALL (     100 calls)
     sum_band:bec :      0.78s CPU      0.02s WALL (     100 calls)
     addusdens    :    605.96s CPU     24.04s WALL (     100 calls)
     addusd:skk   :      4.56s CPU      0.29s WALL (     300 calls)
     addusd:dgemm :     29.93s CPU      4.78s WALL (     300 calls)
     addusd:qvan2 :    351.89s CPU     11.33s WALL (     300 calls)

     Called by *egterg:
     rdiaghg      :    150.51s CPU      5.01s WALL (     369 calls)
     regterg:over :      5.06s CPU      0.16s WALL (     269 calls)
     regterg:upda :      6.41s CPU      0.21s WALL (     269 calls)
     regterg:last :     13.81s CPU      0.46s WALL (     165 calls)
     h_psi        :   2169.06s CPU     68.80s WALL (     370 calls)
     s_psi        :      2.95s CPU      0.10s WALL (     370 calls)
     g_psi        :      0.41s CPU      0.01s WALL (     269 calls)

     Called by h_psi:
     h_psi:calbec :      5.57s CPU      0.19s WALL (     370 calls)
     vloc_psi     :   2156.67s CPU     68.38s WALL (     370 calls)
     add_vuspsi   :      3.64s CPU      0.12s WALL (     370 calls)

     General routines
     calbec       :      6.82s CPU      0.24s WALL (     470 calls)
     fft          :     79.75s CPU      3.01s WALL (    1111 calls)
     ffts         :     36.35s CPU      1.31s WALL (     201 calls)
     fftw         :   2308.70s CPU     72.97s WALL (   33818 calls)
     interpolate  :     41.40s CPU      1.48s WALL (     101 calls)
     davcio       :      0.00s CPU      0.22s WALL (      19 calls)
 
     Parallel routines

     PAW routines
     PAW_pot      :   3471.63s CPU    116.52s WALL (     101 calls)
     PAW_symme    :      8.00s CPU      0.26s WALL (     201 calls)
 
     PWSCF        :      2h27m CPU   4m58.52s WALL

 
   This run was terminated on:   4:31:22  21May2023            

=------------------------------------------------------------------------------=
   JOB DONE.
=------------------------------------------------------------------------------=
