
     Program PWSCF v.7.0 starts on 21May2023 at  8:52:42 

     This program is part of the open-source Quantum ESPRESSO suite
     for quantum simulation of materials; please cite
         "P. Giannozzi et al., J. Phys.:Condens. Matter 21 395502 (2009);
         "P. Giannozzi et al., J. Phys.:Condens. Matter 29 465901 (2017);
         "P. Giannozzi et al., J. Chem. Phys. 152 154105 (2020);
          URL http://www.quantum-espresso.org", 
     in publications or presentations arising from this work. More details at
     http://www.quantum-espresso.org/quote

     Parallel version (MPI & OpenMP), running on      32 processor cores
     Number of MPI processes:                 1
     Threads/MPI process:                    32

     MPI processes distributed on     1 nodes
     161454 MiB available memory on the printing compute node when the environment starts
 
     Reading input from espresso_25423.pwi
Warning: card &CELL ignored
Warning: card / ignored

     Current dimensions of program PWSCF are:
     Max number of different atomic species (ntypx) = 10
     Max number of k-points (npk) =  40000
     Max angular momentum in pseudopotentials (lmaxx) =  4
     file K.pbe-spn-kjpaw_psl.1.0.0.UPF: wavefunction(s)  3S renormalized

     gamma-point specific algorithms are used
     Message from routine setup:
     using ibrav=0 with symmetry is DISCOURAGED, use correct ibrav instead

     Subspace diagonalization in iterative solution of the eigenvalue problem:
     a serial algorithm will be used

 
     G-vector sticks info
     --------------------
     sticks:   dense  smooth     PW     G-vecs:    dense   smooth      PW
     Sum        2875    1449    361               167457    59191    7389
 
     Using Slab Decomposition
 


     bravais-lattice index     =            0
     lattice parameter (alat)  =      12.1294  a.u.
     unit-cell volume          =    2666.8080 (a.u.)^3
     number of atoms/cell      =           20
     number of atomic types    =            4
     number of electrons       =       228.00
     number of Kohn-Sham states=          137
     kinetic-energy cutoff     =      30.0000  Ry
     charge density cutoff     =     240.0000  Ry
     scf convergence threshold =      1.0E-06
     mixing beta               =       0.7000
     number of iterations used =            8  plain     mixing
     Exchange-correlation=  SLA  PW   PBX  PBC
                           (   1   4   3   4   0   0   0)

     celldm(1)=  12.129385  celldm(2)=   0.000000  celldm(3)=   0.000000
     celldm(4)=   0.000000  celldm(5)=   0.000000  celldm(6)=   0.000000

     crystal axes: (cart. coord. in units of alat)
               a(1) = (   1.000000   0.000000   0.000000 )  
               a(2) = (   0.000000   1.025922   0.000000 )  
               a(3) = (   0.000000   0.341676   1.456670 )  

     reciprocal axes: (cart. coord. in units 2 pi/alat)
               b(1) = (  1.000000  0.000000  0.000000 )  
               b(2) = (  0.000000  0.974733 -0.228633 )  
               b(3) = (  0.000000  0.000000  0.686497 )  


     PseudoPot. # 1 for K  read from file:
     /home/pragov/projects/rrg-bengioy-ad/pragov/crystal_structure_design/SSSP/K.pbe-spn-kjpaw_psl.1.0.0.UPF
     MD5 check sum: 7d58810084cac21f60fbe77ea2b688fd
     Pseudo is Projector augmented-wave + core cor, Zval =  9.0
     Generated using "atomic" code by A. Dal Corso  v.5.1
     Shape of augmentation charge: PSQ
     Using radial grid of 1165 points,  6 beta functions with: 
                l(1) =   0
                l(2) =   0
                l(3) =   1
                l(4) =   1
                l(5) =   2
                l(6) =   2
     Q(r) pseudized with 0 coefficients 


     PseudoPot. # 2 for Cu read from file:
     /home/pragov/projects/rrg-bengioy-ad/pragov/crystal_structure_design/SSSP/Cu_pbe_v1.2.uspp.F.UPF
     MD5 check sum: 6e991ff952a84172a2a52a1c1e996048
     Pseudo is Ultrasoft + core correction, Zval = 19.0
     Generated by new atomic code, or converted to UPF format
     Using radial grid of  867 points,  6 beta functions with: 
                l(1) =   0
                l(2) =   0
                l(3) =   1
                l(4) =   1
                l(5) =   2
                l(6) =   2
     Q(r) pseudized with  8 coefficients,  rinner =    1.150   1.150   1.150
                                                       1.150   1.150

     PseudoPot. # 3 for As read from file:
     /home/pragov/projects/rrg-bengioy-ad/pragov/crystal_structure_design/SSSP/As.pbe-n-rrkjus_psl.0.2.UPF
     MD5 check sum: 767315de957beeeb34f87d97bf945c8f
     Pseudo is Ultrasoft + core correction, Zval =  5.0
     Generated using "atomic" code by A. Dal Corso  v.5.0.99 svn rev. 10869
     Using radial grid of 1209 points,  4 beta functions with: 
                l(1) =   0
                l(2) =   0
                l(3) =   1
                l(4) =   1
     Q(r) pseudized with 0 coefficients 


     PseudoPot. # 4 for S  read from file:
     /home/pragov/projects/rrg-bengioy-ad/pragov/crystal_structure_design/SSSP/s_pbe_v1.4.uspp.F.UPF
     MD5 check sum: 88d86576ff6df21479756cfb9bdac1df
     Pseudo is Ultrasoft + core correction, Zval =  6.0
     Generated by new atomic code, or converted to UPF format
     Using radial grid of  907 points,  6 beta functions with: 
                l(1) =   0
                l(2) =   0
                l(3) =   1
                l(4) =   1
                l(5) =   2
                l(6) =   2
     Q(r) pseudized with  8 coefficients,  rinner =    1.300   1.300   1.300
                                                       1.300   1.300

     atomic species   valence    mass     pseudopotential
        K              9.00    39.09830     K ( 1.00)
        Cu            19.00    63.54600     Cu( 1.00)
        As             5.00    74.92159     As( 1.00)
        S              6.00    32.06000     S ( 1.00)

      2 Sym. Ops. (no inversion) found ( 1 have fractional translation)


                                    s                        frac. trans.

      isym =  1     identity                                     

 cryst.   s( 1) = (     1          0          0      )
                  (     0          1          0      )
                  (     0          0          1      )

 cart.    s( 1) = (  1.0000000  0.0000000  0.0000000 )
                  (  0.0000000  1.0000000  0.0000000 )
                  (  0.0000000  0.0000000  1.0000000 )


      isym =  2     180 deg rotation - cart. axis [1,0,0]        

 cryst.   s( 2) = (     1          0          0      )    f =( -0.5000000 )
                  (     0         -1          0      )       ( -0.0000000 )
                  (     0          0         -1      )       (  0.0000000 )

 cart.    s( 2) = (  1.0000000  0.0000000  0.0000000 )    f =( -0.5000000 )
                  (  0.0000000 -1.0000000 -0.0000000 )       ( -0.0000000 )
                  (  0.0000000  0.0000000 -1.0000000 )       (  0.0000000 )


   Cartesian axes

     site n.     atom                  positions (alat units)
         1           K   tau(   1) = (   0.0231440   0.9889565   1.2575870  )
         2           K   tau(   2) = (   0.5231440   0.3786410   0.1990831  )
         3           Cu  tau(   3) = (   0.1739920   1.1709747   0.7069846  )
         4           Cu  tau(   4) = (   0.3829830   0.4915777   0.8114279  )
         5           Cu  tau(   5) = (   0.6739920   0.1966228   0.7496855  )
         6           Cu  tau(   6) = (   0.8829830   0.8760198   0.6452422  )
         7           Cu  tau(   7) = (   0.5335390   0.8615454   0.8874704  )
         8           Cu  tau(   8) = (   0.0335390   0.5060521   0.5691997  )
         9           Cu  tau(   9) = (   0.9060300   0.9904472   0.1813642  )
        10           Cu  tau(  10) = (   0.4060300   0.3771503   1.2753059  )
        11           As  tau(  11) = (   0.3852790   0.9065113   0.3690882  )
        12           As  tau(  12) = (   0.8852790   0.4610862   1.0875819  )
        13           S   tau(  13) = (   0.4050230   1.1872341   0.9613294  )
        14           S   tau(  14) = (   0.5854610   0.8784180   0.0725276  )
        15           S   tau(  15) = (   0.9050230   0.1803634   0.4953407  )
        16           S   tau(  16) = (   0.1147940   0.6966628   0.2804993  )
        17           S   tau(  17) = (   0.0854610   0.4891795   1.3841425  )
        18           S   tau(  18) = (   0.5818540   0.6836537   0.5800868  )
        19           S   tau(  19) = (   0.6147940   0.6709347   1.1761708  )
        20           S   tau(  20) = (   0.0818540   0.6839438   0.8765833  )

   Crystallographic axes

     site n.     atom                  positions (cryst. coord.)
         1           K   tau(   1) = (  0.0231440  0.6764430  0.8633300  )
         2           K   tau(   2) = (  0.5231440  0.3235570  0.1366700  )
         3           Cu  tau(   3) = (  0.1739920  0.9797480  0.4853430  )
         4           Cu  tau(   4) = (  0.3829830  0.2936380  0.5570430  )
         5           Cu  tau(   5) = (  0.6739920  0.0202520  0.5146570  )
         6           Cu  tau(   6) = (  0.8829830  0.7063620  0.4429570  )
         7           Cu  tau(   7) = (  0.5335390  0.6368720  0.6092460  )
         8           Cu  tau(   8) = (  0.0335390  0.3631280  0.3907540  )
         9           Cu  tau(   9) = (  0.9060300  0.9239560  0.1245060  )
        10           Cu  tau(  10) = (  0.4060300  0.0760440  0.8754940  )
        11           As  tau(  11) = (  0.3852790  0.7992210  0.2533780  )
        12           As  tau(  12) = (  0.8852790  0.2007790  0.7466220  )
        13           S   tau(  13) = (  0.4050230  0.9374450  0.6599500  )
        14           S   tau(  14) = (  0.5854610  0.8396410  0.0497900  )
        15           S   tau(  15) = (  0.9050230  0.0625550  0.3400500  )
        16           S   tau(  16) = (  0.1147940  0.6149290  0.1925620  )
        17           S   tau(  17) = (  0.0854610  0.1603590  0.9502100  )
        18           S   tau(  18) = (  0.5818540  0.5337530  0.3982280  )
        19           S   tau(  19) = (  0.6147940  0.3850710  0.8074380  )
        20           S   tau(  20) = (  0.0818540  0.4662470  0.6017720  )

     number of k points=     1  Methfessel-Paxton smearing, width (Ry)=  0.0010
                       cart. coord. in units 2pi/alat
        k(    1) = (   0.0000000   0.0000000   0.0000000), wk =   2.0000000

                       cryst. coord.
        k(    1) = (   0.0000000   0.0000000   0.0000000), wk =   2.0000000

     Dense  grid:    83729 G-vectors     FFT dimensions: (  60,  64,  90)

     Smooth grid:    29596 G-vectors     FFT dimensions: (  48,  45,  64)

     Dynamical RAM for                 wfc:       7.73 MB

     Dynamical RAM for     wfc (w. buffer):       7.73 MB

     Dynamical RAM for           str. fact:       5.11 MB

     Dynamical RAM for           local pot:       0.00 MB

     Dynamical RAM for          nlocal pot:      19.20 MB

     Dynamical RAM for                qrad:       4.98 MB

     Dynamical RAM for          rho,v,vnew:      11.74 MB

     Dynamical RAM for               rhoin:       3.91 MB

     Dynamical RAM for            rho*nmix:      20.44 MB

     Dynamical RAM for           G-vectors:       5.02 MB

     Dynamical RAM for          h,s,v(r/c):       1.72 MB

     Dynamical RAM for          <psi|beta>:       0.36 MB

     Dynamical RAM for                 psi:      15.47 MB

     Dynamical RAM for                hpsi:      15.47 MB

     Dynamical RAM for                spsi:      15.47 MB

     Dynamical RAM for      wfcinit/wfcrot:      18.65 MB

     Dynamical RAM for           addusdens:     247.86 MB

     Dynamical RAM for          addusforce:     266.41 MB

     Dynamical RAM for         addusstress:     256.80 MB

     Estimated static dynamical RAM per process >      77.26 MB

     Estimated max dynamical RAM per process >     364.12 MB

     Check: negative core charge=   -0.000002

     Initial potential from superposition of free atoms

     starting charge     219.9616, renormalised to     228.0000
     Starting wfcs are  160 randomized atomic wfcs
     Checking if some PAW data can be deallocated... 

     total cpu time spent up to now is       10.7 secs

     Self-consistent Calculation

     iteration #  1     ecut=    30.00 Ry     beta= 0.70
     Davidson diagonalization with overlap

---- Real-time Memory Report at c_bands before calling an iterative solver
           690 MiB given to the printing process from OS
             0 MiB allocation reported by mallinfo(arena+hblkhd)
        161135 MiB available memory on the node where the printing process lives
------------------
     ethr =  1.00E-02,  avg # of iterations =  4.0

     total cpu time spent up to now is       12.8 secs

     total energy              =   -3664.84734704 Ry
     estimated scf accuracy    <      26.21756369 Ry

     iteration #  2     ecut=    30.00 Ry     beta= 0.70
     Davidson diagonalization with overlap

---- Real-time Memory Report at c_bands before calling an iterative solver
           819 MiB given to the printing process from OS
             0 MiB allocation reported by mallinfo(arena+hblkhd)
        161045 MiB available memory on the node where the printing process lives
------------------
     ethr =  1.00E-02,  avg # of iterations =  6.0

     total cpu time spent up to now is       14.8 secs

     total energy              =   -3595.00304634 Ry
     estimated scf accuracy    <    1401.66275776 Ry

     iteration #  3     ecut=    30.00 Ry     beta= 0.70
     Davidson diagonalization with overlap

---- Real-time Memory Report at c_bands before calling an iterative solver
           850 MiB given to the printing process from OS
             0 MiB allocation reported by mallinfo(arena+hblkhd)
        161043 MiB available memory on the node where the printing process lives
------------------
     ethr =  1.00E-02,  avg # of iterations =  6.0

     total cpu time spent up to now is       16.4 secs

     total energy              =   -3682.38370555 Ry
     estimated scf accuracy    <      56.52858655 Ry

     iteration #  4     ecut=    30.00 Ry     beta= 0.70
     Davidson diagonalization with overlap

---- Real-time Memory Report at c_bands before calling an iterative solver
           856 MiB given to the printing process from OS
             0 MiB allocation reported by mallinfo(arena+hblkhd)
        161038 MiB available memory on the node where the printing process lives
------------------
     ethr =  1.00E-02,  avg # of iterations =  2.0

     total cpu time spent up to now is       17.7 secs

     total energy              =   -3685.67955963 Ry
     estimated scf accuracy    <       8.08053124 Ry

     iteration #  5     ecut=    30.00 Ry     beta= 0.70
     Davidson diagonalization with overlap

---- Real-time Memory Report at c_bands before calling an iterative solver
           856 MiB given to the printing process from OS
             0 MiB allocation reported by mallinfo(arena+hblkhd)
        161038 MiB available memory on the node where the printing process lives
------------------
     ethr =  3.54E-03,  avg # of iterations =  2.0

     total cpu time spent up to now is       18.8 secs

     total energy              =   -3685.55509675 Ry
     estimated scf accuracy    <       2.89258576 Ry

     iteration #  6     ecut=    30.00 Ry     beta= 0.70
     Davidson diagonalization with overlap

---- Real-time Memory Report at c_bands before calling an iterative solver
           872 MiB given to the printing process from OS
             0 MiB allocation reported by mallinfo(arena+hblkhd)
        161036 MiB available memory on the node where the printing process lives
------------------
     ethr =  1.27E-03,  avg # of iterations =  2.0

     total cpu time spent up to now is       20.0 secs

     total energy              =   -3685.45211642 Ry
     estimated scf accuracy    <       1.16572519 Ry

     iteration #  7     ecut=    30.00 Ry     beta= 0.70
     Davidson diagonalization with overlap

---- Real-time Memory Report at c_bands before calling an iterative solver
           875 MiB given to the printing process from OS
             0 MiB allocation reported by mallinfo(arena+hblkhd)
        161040 MiB available memory on the node where the printing process lives
------------------
     ethr =  5.11E-04,  avg # of iterations = 13.0

     total cpu time spent up to now is       21.4 secs

     total energy              =   -3685.47677230 Ry
     estimated scf accuracy    <       0.50520537 Ry

     iteration #  8     ecut=    30.00 Ry     beta= 0.70
     Davidson diagonalization with overlap

---- Real-time Memory Report at c_bands before calling an iterative solver
           875 MiB given to the printing process from OS
             0 MiB allocation reported by mallinfo(arena+hblkhd)
        161040 MiB available memory on the node where the printing process lives
------------------
     ethr =  2.22E-04,  avg # of iterations =  2.0

     total cpu time spent up to now is       22.6 secs

     total energy              =   -3685.43656254 Ry
     estimated scf accuracy    <       0.24947744 Ry

     iteration #  9     ecut=    30.00 Ry     beta= 0.70
     Davidson diagonalization with overlap

---- Real-time Memory Report at c_bands before calling an iterative solver
           876 MiB given to the printing process from OS
             0 MiB allocation reported by mallinfo(arena+hblkhd)
        161039 MiB available memory on the node where the printing process lives
------------------
     ethr =  1.09E-04,  avg # of iterations = 12.0

     total cpu time spent up to now is       24.1 secs

     total energy              =   -3685.47588715 Ry
     estimated scf accuracy    <       0.03232045 Ry

     iteration # 10     ecut=    30.00 Ry     beta= 0.70
     Davidson diagonalization with overlap

---- Real-time Memory Report at c_bands before calling an iterative solver
           877 MiB given to the printing process from OS
             0 MiB allocation reported by mallinfo(arena+hblkhd)
        161038 MiB available memory on the node where the printing process lives
------------------
     ethr =  1.42E-05,  avg # of iterations =  7.0

     total cpu time spent up to now is       25.4 secs

     total energy              =   -3685.47766074 Ry
     estimated scf accuracy    <       0.01077955 Ry

     iteration # 11     ecut=    30.00 Ry     beta= 0.70
     Davidson diagonalization with overlap

---- Real-time Memory Report at c_bands before calling an iterative solver
           879 MiB given to the printing process from OS
             0 MiB allocation reported by mallinfo(arena+hblkhd)
        161039 MiB available memory on the node where the printing process lives
------------------
     ethr =  4.73E-06,  avg # of iterations =  3.0

     total cpu time spent up to now is       26.6 secs

     total energy              =   -3685.47781343 Ry
     estimated scf accuracy    <       0.00968183 Ry

     iteration # 12     ecut=    30.00 Ry     beta= 0.70
     Davidson diagonalization with overlap

---- Real-time Memory Report at c_bands before calling an iterative solver
           879 MiB given to the printing process from OS
             0 MiB allocation reported by mallinfo(arena+hblkhd)
        161035 MiB available memory on the node where the printing process lives
------------------
     ethr =  4.25E-06,  avg # of iterations =  3.0

     total cpu time spent up to now is       27.8 secs

     total energy              =   -3685.47462843 Ry
     estimated scf accuracy    <       0.00995040 Ry

     iteration # 13     ecut=    30.00 Ry     beta= 0.70
     Davidson diagonalization with overlap

---- Real-time Memory Report at c_bands before calling an iterative solver
           879 MiB given to the printing process from OS
             0 MiB allocation reported by mallinfo(arena+hblkhd)
        161038 MiB available memory on the node where the printing process lives
------------------
     ethr =  4.25E-06,  avg # of iterations =  3.0

     total cpu time spent up to now is       29.0 secs

     total energy              =   -3685.47687488 Ry
     estimated scf accuracy    <       0.00199218 Ry

     iteration # 14     ecut=    30.00 Ry     beta= 0.70
     Davidson diagonalization with overlap

---- Real-time Memory Report at c_bands before calling an iterative solver
           879 MiB given to the printing process from OS
             0 MiB allocation reported by mallinfo(arena+hblkhd)
        161040 MiB available memory on the node where the printing process lives
------------------
     ethr =  8.74E-07,  avg # of iterations =  2.0

     total cpu time spent up to now is       30.2 secs

     total energy              =   -3685.47698597 Ry
     estimated scf accuracy    <       0.00032733 Ry

     iteration # 15     ecut=    30.00 Ry     beta= 0.70
     Davidson diagonalization with overlap

---- Real-time Memory Report at c_bands before calling an iterative solver
           879 MiB given to the printing process from OS
             0 MiB allocation reported by mallinfo(arena+hblkhd)
        161041 MiB available memory on the node where the printing process lives
------------------
     ethr =  1.44E-07,  avg # of iterations =  3.0

     total cpu time spent up to now is       31.4 secs

     total energy              =   -3685.47701591 Ry
     estimated scf accuracy    <       0.00004271 Ry

     iteration # 16     ecut=    30.00 Ry     beta= 0.70
     Davidson diagonalization with overlap

---- Real-time Memory Report at c_bands before calling an iterative solver
           879 MiB given to the printing process from OS
             0 MiB allocation reported by mallinfo(arena+hblkhd)
        161043 MiB available memory on the node where the printing process lives
------------------
     ethr =  1.87E-08,  avg # of iterations =  4.0

     total cpu time spent up to now is       33.2 secs

     total energy              =   -3685.47702594 Ry
     estimated scf accuracy    <       0.00001766 Ry

     iteration # 17     ecut=    30.00 Ry     beta= 0.70
     Davidson diagonalization with overlap

---- Real-time Memory Report at c_bands before calling an iterative solver
           879 MiB given to the printing process from OS
             0 MiB allocation reported by mallinfo(arena+hblkhd)
        161038 MiB available memory on the node where the printing process lives
------------------
     ethr =  7.75E-09,  avg # of iterations =  2.0

     total cpu time spent up to now is       34.4 secs

     total energy              =   -3685.47702752 Ry
     estimated scf accuracy    <       0.00000721 Ry

     iteration # 18     ecut=    30.00 Ry     beta= 0.70
     Davidson diagonalization with overlap

---- Real-time Memory Report at c_bands before calling an iterative solver
           879 MiB given to the printing process from OS
             0 MiB allocation reported by mallinfo(arena+hblkhd)
        161038 MiB available memory on the node where the printing process lives
------------------
     ethr =  3.16E-09,  avg # of iterations =  2.0

     total cpu time spent up to now is       35.6 secs

     total energy              =   -3685.47702771 Ry
     estimated scf accuracy    <       0.00000270 Ry

     iteration # 19     ecut=    30.00 Ry     beta= 0.70
     Davidson diagonalization with overlap

---- Real-time Memory Report at c_bands before calling an iterative solver
           879 MiB given to the printing process from OS
             0 MiB allocation reported by mallinfo(arena+hblkhd)
        161023 MiB available memory on the node where the printing process lives
------------------
     ethr =  1.18E-09,  avg # of iterations =  2.0

     total cpu time spent up to now is       36.8 secs

     End of self-consistent calculation

          k = 0.0000 0.0000 0.0000 (  3695 PWs)   bands (ev):

  -104.5705-104.5701-104.5606-104.5597-104.2983-104.2979-103.9897-103.9888
   -62.1124 -62.1104 -61.9847 -61.9840 -61.9631 -61.9622 -61.9154 -61.9135
   -61.8983 -61.8976 -61.8402 -61.8394 -61.7443 -61.7439 -61.6744 -61.6736
   -61.6484 -61.6477 -61.4497 -61.4490 -61.3984 -61.3977 -61.2989 -61.2981
   -22.4957 -22.4926  -7.3367  -7.0494  -6.2678  -6.1351  -6.0923  -6.0591
    -6.0263  -5.9906  -5.9060  -5.7875  -5.6195  -5.5236  -5.1492  -5.0511
    -2.3448  -2.2672   1.3913   1.8632   1.8958   1.9775   1.9889   2.1919
     2.2665   2.4917   2.6110   2.9538   3.2301   3.2470   3.3951   3.5393
     3.6173   3.6489   3.6636   3.9223   4.0729   4.1021   4.3934   4.5018
     4.5390   4.5582   4.8535   4.8968   4.9169   4.9980   5.0789   5.1503
     5.1854   5.2453   5.2828   5.3777   5.4279   5.4696   5.5629   5.5673
     5.6248   5.6299   5.7182   5.7666   5.7927   5.8167   5.8396   5.9034
     5.9487   5.9670   5.9894   6.0457   6.0635   6.1045   6.2555   6.2570
     6.3422   6.4351   6.5545   6.6362   6.9992   7.0459   7.0972   7.2152
     7.5687   7.5794   8.9792   9.2303   9.5122   9.5529   9.6566  10.2951
    10.6267  10.7283  11.2680  11.2900  11.6195  11.8580  12.0328  12.2517
    12.3602  12.5086  12.8577  12.9094  13.0599  13.3062  13.4539  13.7379
    13.9024

     occupation numbers 
     1.0000   1.0000   1.0000   1.0000   1.0000   1.0000   1.0000   1.0000
     1.0000   1.0000   1.0000   1.0000   1.0000   1.0000   1.0000   1.0000
     1.0000   1.0000   1.0000   1.0000   1.0000   1.0000   1.0000   1.0000
     1.0000   1.0000   1.0000   1.0000   1.0000   1.0000   1.0000   1.0000
     1.0000   1.0000   1.0000   1.0000   1.0000   1.0000   1.0000   1.0000
     1.0000   1.0000   1.0000   1.0000   1.0000   1.0000   1.0000   1.0000
     1.0000   1.0000   1.0000   1.0000   1.0000   1.0000   1.0000   1.0000
     1.0000   1.0000   1.0000   1.0000   1.0000   1.0000   1.0000   1.0000
     1.0000   1.0000   1.0000   1.0000   1.0000   1.0000   1.0000   1.0000
     1.0000   1.0000   1.0000   1.0000   1.0000   1.0000   1.0000   1.0000
     1.0000   1.0000   1.0000   1.0000   1.0000   1.0000   1.0000   1.0000
     1.0000   1.0000   1.0000   1.0000   1.0000   1.0000   1.0000   1.0000
     1.0000   1.0000   1.0000   1.0000   1.0000   1.0000   1.0000   1.0000
     1.0000   1.0000   1.0000   1.0000   1.0000   1.0000   1.0000   1.0000
     1.0000   1.0000  -0.0000  -0.0000  -0.0000  -0.0000  -0.0000  -0.0000
    -0.0000  -0.0000  -0.0000  -0.0000  -0.0000  -0.0000  -0.0000  -0.0000
    -0.0000  -0.0000  -0.0000  -0.0000  -0.0000  -0.0000  -0.0000  -0.0000
    -0.0000

     the Fermi energy is     8.4723 ev

!    total energy              =   -3685.47702800 Ry
     estimated scf accuracy    <       0.00000018 Ry
     smearing contrib. (-TS)   =       0.00000000 Ry
     internal energy E=F+TS    =   -3685.47702800 Ry

     The total energy is F=E-TS. E is the sum of the following terms:
     one-electron contribution =   -3820.04842615 Ry
     hartree contribution      =    1996.51987302 Ry
     xc contribution           =    -419.20368534 Ry
     ewald contribution        =   -1331.90987198 Ry
     one-center paw contrib.   =    -110.83491755 Ry
      -> PAW hartree energy AE =      75.53447084 Ry
      -> PAW hartree energy PS =     -75.11370433 Ry
      -> PAW xc energy AE      =    -132.45411247 Ry
      -> PAW xc energy PS      =      21.19842841 Ry
      -> total E_H with PAW    =    1996.94063953 Ry
      -> total E_XC with PAW   =    -530.45936940 Ry

     convergence has been achieved in  19 iterations

     Forces acting on atoms (cartesian axes, Ry/au):

     atom    1 type  1   force =    -0.00200059    0.00308214   -0.00557309
     atom    2 type  1   force =    -0.00200059   -0.00308214    0.00557309
     atom    3 type  2   force =    -0.00504045   -0.00052343    0.00421013
     atom    4 type  2   force =    -0.00059916    0.00290118   -0.00744326
     atom    5 type  2   force =    -0.00504045    0.00052343   -0.00421013
     atom    6 type  2   force =    -0.00059916   -0.00290118    0.00744326
     atom    7 type  2   force =     0.01159992   -0.00379419    0.00335578
     atom    8 type  2   force =     0.01159992    0.00379419   -0.00335578
     atom    9 type  2   force =    -0.00665213    0.00346151    0.00366827
     atom   10 type  2   force =    -0.00665213   -0.00346151   -0.00366827
     atom   11 type  3   force =    -0.01273555    0.01551503    0.00987275
     atom   12 type  3   force =    -0.01273555   -0.01551503   -0.00987275
     atom   13 type  4   force =    -0.00707367   -0.00830341   -0.00109387
     atom   14 type  4   force =     0.00475931    0.00064748   -0.01487997
     atom   15 type  4   force =    -0.00707367    0.00830341    0.00109387
     atom   16 type  4   force =     0.01530920   -0.02016917   -0.00144537
     atom   17 type  4   force =     0.00475931   -0.00064748    0.01487997
     atom   18 type  4   force =     0.00243311   -0.00332637    0.01336043
     atom   19 type  4   force =     0.01530920    0.02016917    0.00144537
     atom   20 type  4   force =     0.00243311    0.00332637   -0.01336043
     The non-local contrib.  to forces
     atom    1 type  1   force =     0.01200555    0.00366317    0.00232695
     atom    2 type  1   force =     0.01200555   -0.00366317   -0.00232695
     atom    3 type  2   force =     0.08774370   -0.19026260   -0.10250603
     atom    4 type  2   force =     0.08961603   -0.06071813    0.05591785
     atom    5 type  2   force =     0.08774370    0.19026260    0.10250603
     atom    6 type  2   force =     0.08961603    0.06071813   -0.05591785
     atom    7 type  2   force =    -0.07535224    0.08437358   -0.06042911
     atom    8 type  2   force =    -0.07535224   -0.08437358    0.06042911
     atom    9 type  2   force =     0.11081328    0.05827004    0.26868217
     atom   10 type  2   force =     0.11081328   -0.05827004   -0.26868217
     atom   11 type  3   force =     0.03922133   -0.34781937   -0.14296037
     atom   12 type  3   force =     0.03922133    0.34781937    0.14296037
     atom   13 type  4   force =     0.06723734    0.13385373   -0.19653346
     atom   14 type  4   force =    -0.03119988    0.13661641    0.12612474
     atom   15 type  4   force =     0.06723734   -0.13385373    0.19653346
     atom   16 type  4   force =     0.07127220    0.16799392    0.18427927
     atom   17 type  4   force =    -0.03119988   -0.13661641   -0.12612474
     atom   18 type  4   force =    -0.10299174    0.14849055    0.09362708
     atom   19 type  4   force =     0.07127220   -0.16799392   -0.18427927
     atom   20 type  4   force =    -0.10299174   -0.14849055   -0.09362708
     The ionic contribution  to forces
     atom    1 type  1   force =    -0.87141035   -4.16399896   11.61536965
     atom    2 type  1   force =    -0.87141035    4.16399896  -11.61536965
     atom    3 type  2   force =     5.26519530  -12.02864369   -2.56388704
     atom    4 type  2   force =     1.82194567    7.59964024   10.16325598
     atom    5 type  2   force =     5.26519530   12.02864368    2.56388704
     atom    6 type  2   force =     1.82194566   -7.59964024  -10.16325598
     atom    7 type  2   force =    -4.05162836   -0.31885760   38.71541260
     atom    8 type  2   force =    -4.05162836    0.31885760  -38.71541260
     atom    9 type  2   force =    -0.90752402    1.70436918  -30.68944453
     atom   10 type  2   force =    -0.90752402   -1.70436918   30.68944453
     atom   11 type  3   force =     0.92165502    0.36629986  -10.02106793
     atom   12 type  3   force =     0.92165502   -0.36629986   10.02106793
     atom   13 type  4   force =    -3.02751950   -4.77908504   20.03243693
     atom   14 type  4   force =    -2.69797516   -7.99572898   -1.67887350
     atom   15 type  4   force =    -3.02751950    4.77908504  -20.03243693
     atom   16 type  4   force =     5.70079171   -4.88961633  -17.00679040
     atom   17 type  4   force =    -2.69797516    7.99572898    1.67887350
     atom   18 type  4   force =    -2.15353030   -3.74738542  -18.59067429
     atom   19 type  4   force =     5.70079171    4.88961633   17.00679040
     atom   20 type  4   force =    -2.15353030    3.74738542   18.59067429
     The local contribution  to forces
     atom    1 type  1   force =     0.85774445    4.16362077  -11.62320807
     atom    2 type  1   force =     0.85768934   -4.16360849   11.62320894
     atom    3 type  2   force =    -5.35770707   12.21804688    2.67036124
     atom    4 type  2   force =    -1.91189345   -7.53640031  -10.22638099
     atom    5 type  2   force =    -5.35805701  -12.21808383   -2.67021637
     atom    6 type  2   force =    -1.91190325    7.53646343   10.22654384
     atom    7 type  2   force =     4.13836140    0.23097323  -38.65080780
     atom    8 type  2   force =     4.13863936   -0.23103551   38.65088206
     atom    9 type  2   force =     0.79043100   -1.75919682   30.42477711
     atom   10 type  2   force =     0.79046556    1.75920388  -30.42490576
     atom   11 type  3   force =    -0.96980021   -0.03333435   10.16273855
     atom   12 type  3   force =    -0.96981366    0.03332114  -10.16273010
     atom   13 type  4   force =     2.95697899    4.64456735  -19.84705054
     atom   14 type  4   force =     2.73235216    7.86713162    1.54446826
     atom   15 type  4   force =     2.95701163   -4.64454271   19.84705438
     atom   16 type  4   force =    -5.75316474    4.71051460   16.83101025
     atom   17 type  4   force =     2.73246247   -7.86712130   -1.54453019
     atom   18 type  4   force =     2.25325138    3.60342594   18.51537751
     atom   19 type  4   force =    -5.75329301   -4.71052714  -16.83102559
     atom   20 type  4   force =     2.25341183   -3.60341657  -18.51533141
     The core correction contribution to forces
     atom    1 type  1   force =    -0.00035619   -0.00028767    0.00005893
     atom    2 type  1   force =    -0.00035594    0.00028781   -0.00005739
     atom    3 type  2   force =    -0.00017754    0.00022162    0.00016550
     atom    4 type  2   force =    -0.00011373    0.00024778    0.00003849
     atom    5 type  2   force =    -0.00017742   -0.00022166   -0.00016550
     atom    6 type  2   force =    -0.00011368   -0.00024788   -0.00003852
     atom    7 type  2   force =     0.00010672   -0.00025256    0.00005467
     atom    8 type  2   force =     0.00010658    0.00025257   -0.00005470
     atom    9 type  2   force =    -0.00012579   -0.00009134   -0.00028482
     atom   10 type  2   force =    -0.00012582    0.00009130    0.00028486
     atom   11 type  3   force =    -0.00395440    0.03031068    0.01108590
     atom   12 type  3   force =    -0.00395402   -0.03031206   -0.01108628
     atom   13 type  4   force =    -0.00376790   -0.00768994    0.01018565
     atom   14 type  4   force =     0.00147243   -0.00743452   -0.00666444
     atom   15 type  4   force =    -0.00376740    0.00769017   -0.01018643
     atom   16 type  4   force =    -0.00353585   -0.00911609   -0.01002283
     atom   17 type  4   force =     0.00147255    0.00743470    0.00666476
     atom   18 type  4   force =     0.00556044   -0.00787965   -0.00506299
     atom   19 type  4   force =    -0.00353626    0.00911600    0.01002358
     atom   20 type  4   force =     0.00556082    0.00788061    0.00506223
     The Hubbard contrib.    to forces
     atom    1 type  1   force =     0.00000000    0.00000000    0.00000000
     atom    2 type  1   force =     0.00000000    0.00000000    0.00000000
     atom    3 type  2   force =     0.00000000    0.00000000    0.00000000
     atom    4 type  2   force =     0.00000000    0.00000000    0.00000000
     atom    5 type  2   force =     0.00000000    0.00000000    0.00000000
     atom    6 type  2   force =     0.00000000    0.00000000    0.00000000
     atom    7 type  2   force =     0.00000000    0.00000000    0.00000000
     atom    8 type  2   force =     0.00000000    0.00000000    0.00000000
     atom    9 type  2   force =     0.00000000    0.00000000    0.00000000
     atom   10 type  2   force =     0.00000000    0.00000000    0.00000000
     atom   11 type  3   force =     0.00000000    0.00000000    0.00000000
     atom   12 type  3   force =     0.00000000    0.00000000    0.00000000
     atom   13 type  4   force =     0.00000000    0.00000000    0.00000000
     atom   14 type  4   force =     0.00000000    0.00000000    0.00000000
     atom   15 type  4   force =     0.00000000    0.00000000    0.00000000
     atom   16 type  4   force =     0.00000000    0.00000000    0.00000000
     atom   17 type  4   force =     0.00000000    0.00000000    0.00000000
     atom   18 type  4   force =     0.00000000    0.00000000    0.00000000
     atom   19 type  4   force =     0.00000000    0.00000000    0.00000000
     atom   20 type  4   force =     0.00000000    0.00000000    0.00000000
     The SCF correction term to forces
     atom    1 type  1   force =    -0.00001275    0.00008768   -0.00011060
     atom    2 type  1   force =     0.00004086   -0.00009441    0.00012812
     atom    3 type  2   force =    -0.00016460    0.00011450    0.00006792
     atom    4 type  2   force =    -0.00017933    0.00011587   -0.00027127
     atom    5 type  2   force =     0.00026611   -0.00007721   -0.00022987
     atom    6 type  2   force =    -0.00017691   -0.00021034    0.00011510
     atom    7 type  2   force =     0.00010366   -0.00003356   -0.00087871
     atom    8 type  2   force =    -0.00021534    0.00009040    0.00079621
     atom    9 type  2   force =    -0.00025910    0.00010826   -0.00005796
     atom   10 type  2   force =    -0.00032728   -0.00011965    0.00019396
     atom   11 type  3   force =     0.00010926    0.00005407    0.00007459
     atom   12 type  3   force =     0.00013058   -0.00004776   -0.00008669
     atom   13 type  4   force =    -0.00003268    0.00005128   -0.00013635
     atom   14 type  4   force =     0.00008227    0.00006454    0.00006999
     atom   15 type  4   force =    -0.00006428   -0.00007459    0.00012552
     atom   16 type  4   force =    -0.00007808    0.00005533    0.00008472
     atom   17 type  4   force =    -0.00003182   -0.00007188    0.00000166
     atom   18 type  4   force =     0.00011446    0.00003271    0.00008478
     atom   19 type  4   force =     0.00003989   -0.00004149   -0.00005737
     atom   20 type  4   force =    -0.00004730   -0.00002203   -0.00014679

     Total force =     0.064588     Total SCF correction =     0.001526


     Computing stress (Cartesian axis) and pressure

          total   stress  (Ry/bohr**3)                   (kbar)     P=     -282.19
  -0.00194313   0.00000000   0.00000000         -285.84        0.00        0.00
   0.00000000  -0.00191860   0.00001785            0.00     -282.24        2.63
   0.00000000   0.00001785  -0.00189322            0.00        2.63     -278.50

     kinetic stress (kbar)  16592.56      0.00      0.00
                                0.00  16668.15     35.81
                                0.00     35.81  16604.72

     local   stress (kbar) -54677.89     -0.01     -0.02
                               -0.01 -64313.76   2941.40
                               -0.02   2941.40  17448.84

     nonloc. stress (kbar)  11478.66      0.00      0.00
                                0.00  11495.79     -3.23
                                0.00     -3.23  11473.38

     hartree stress (kbar)  46958.77      0.01      0.02
                                0.01  51447.94  -1198.48
                                0.02  -1198.48  11724.28

     exc-cor stress (kbar)  -3916.68     -0.00     -0.00
                               -0.00  -3915.87     -1.30
                               -0.00     -1.30  -3916.26

     corecor stress (kbar)  -2842.54     -0.00     -0.00
                               -0.00  -2844.12     -0.60
                               -0.00     -0.60  -2842.43

     ewald   stress (kbar) -13878.71     -0.00      0.00
                               -0.00  -8820.37  -1770.98
                                0.00  -1770.98 -50771.04

     hubbard stress (kbar)      0.00      0.00      0.00
                                0.00      0.00      0.00
                                0.00      0.00      0.00

     DFT-D   stress (kbar)      0.00      0.00      0.00
                                0.00      0.00      0.00
                                0.00      0.00      0.00

     XDM     stress (kbar)      0.00      0.00      0.00
                                0.00      0.00      0.00
                                0.00      0.00      0.00

     dft-nl  stress (kbar)      0.00      0.00      0.00
                                0.00      0.00      0.00
                                0.00      0.00      0.00

     TS-vdW  stress (kbar)      0.00      0.00      0.00
                                0.00      0.00      0.00
                                0.00      0.00      0.00


                                0.00      0.00      0.00
                                0.00      0.00      0.00


                                0.00      0.00      0.00


     Writing all to output data dir new_calculations/myprefix.save/
 
     init_run     :    212.35s CPU     10.42s WALL (       1 calls)
     electrons    :    713.12s CPU     26.51s WALL (       1 calls)
     forces       :     15.33s CPU      0.51s WALL (       1 calls)
     stress       :     68.25s CPU      2.28s WALL (       1 calls)

     Called by init_run:
     wfcinit      :     53.92s CPU      1.81s WALL (       1 calls)
     wfcinit:atom :      0.12s CPU      0.00s WALL (       1 calls)
     wfcinit:wfcr :     53.03s CPU      1.78s WALL (       1 calls)
     potinit      :     46.07s CPU      1.63s WALL (       1 calls)
     hinit0       :    100.63s CPU      6.50s WALL (       1 calls)

     Called by electrons:
     c_bands      :    296.39s CPU      9.83s WALL (      19 calls)
     sum_band     :    163.94s CPU      7.89s WALL (      19 calls)
     v_of_rho     :     24.52s CPU      0.82s WALL (      20 calls)
     v_h          :      2.26s CPU      0.07s WALL (      20 calls)
     v_xc         :     24.43s CPU      0.82s WALL (      22 calls)
     newd         :    150.32s CPU      5.13s WALL (      20 calls)
     PAW_pot      :     73.85s CPU      2.49s WALL (      20 calls)
     mix_rho      :      8.26s CPU      0.27s WALL (      19 calls)

     Called by c_bands:
     init_us_2    :      0.97s CPU      0.03s WALL (      39 calls)
     init_us_2:cp :      0.91s CPU      0.03s WALL (      39 calls)
     regterg      :    290.80s CPU      9.64s WALL (      19 calls)

     Called by sum_band:
     sum_band:wei :      0.04s CPU      0.00s WALL (      19 calls)
     sum_band:loo :     39.81s CPU      1.31s WALL (      19 calls)
     sum_band:buf :      0.02s CPU      0.00s WALL (      19 calls)
     sum_band:ini :      0.47s CPU      0.02s WALL (      19 calls)
     sum_band:cal :      0.82s CPU      0.03s WALL (      19 calls)
     sum_band:bec :      0.28s CPU      0.01s WALL (      19 calls)
     addusdens    :    120.50s CPU      6.46s WALL (      19 calls)
     addusd:skk   :      1.91s CPU      0.10s WALL (      76 calls)
     addusd:dgemm :     12.00s CPU      2.88s WALL (      76 calls)
     addusd:qvan2 :    103.43s CPU      3.37s WALL (      76 calls)

     Called by *egterg:
     rdiaghg      :     52.74s CPU      1.76s WALL (      99 calls)
     regterg:over :      3.40s CPU      0.11s WALL (      80 calls)
     regterg:upda :      3.22s CPU      0.11s WALL (      80 calls)
     regterg:last :      8.93s CPU      0.30s WALL (      42 calls)
     h_psi        :    259.86s CPU      8.62s WALL (     100 calls)
     s_psi        :      1.31s CPU      0.04s WALL (     100 calls)
     g_psi        :      0.18s CPU      0.01s WALL (      80 calls)

     Called by h_psi:
     h_psi:calbec :      3.86s CPU      0.13s WALL (     100 calls)
     vloc_psi     :    253.04s CPU      8.39s WALL (     100 calls)
     add_vuspsi   :      1.87s CPU      0.06s WALL (     100 calls)

     General routines
     calbec       :      4.69s CPU      0.16s WALL (     124 calls)
     fft          :     84.48s CPU      3.20s WALL (     238 calls)
     ffts         :     35.84s CPU      1.27s WALL (      39 calls)
     fftw         :    189.53s CPU      6.28s WALL (    7973 calls)
     interpolate  :     37.55s CPU      1.33s WALL (      20 calls)
 
     Parallel routines

     PAW routines
     PAW_pot      :     73.85s CPU      2.49s WALL (      20 calls)
     PAW_symme    :      0.08s CPU      0.00s WALL (      39 calls)
 
     PWSCF        :  16m56.65s CPU     40.67s WALL

 
   This run was terminated on:   8:53:22  21May2023            

=------------------------------------------------------------------------------=
   JOB DONE.
=------------------------------------------------------------------------------=
