
     Program PWSCF v.7.0 starts on 21May2023 at  0:33: 9 

     This program is part of the open-source Quantum ESPRESSO suite
     for quantum simulation of materials; please cite
         "P. Giannozzi et al., J. Phys.:Condens. Matter 21 395502 (2009);
         "P. Giannozzi et al., J. Phys.:Condens. Matter 29 465901 (2017);
         "P. Giannozzi et al., J. Chem. Phys. 152 154105 (2020);
          URL http://www.quantum-espresso.org", 
     in publications or presentations arising from this work. More details at
     http://www.quantum-espresso.org/quote

     Parallel version (MPI & OpenMP), running on      32 processor cores
     Number of MPI processes:                 1
     Threads/MPI process:                    32

     MPI processes distributed on     1 nodes
     172995 MiB available memory on the printing compute node when the environment starts
 
     Reading input from espresso_15395.pwi
Warning: card &CELL ignored
Warning: card / ignored

     Current dimensions of program PWSCF are:
     Max number of different atomic species (ntypx) = 10
     Max number of k-points (npk) =  40000
     Max angular momentum in pseudopotentials (lmaxx) =  4

     gamma-point specific algorithms are used
     Message from routine setup:
     using ibrav=0 with symmetry is DISCOURAGED, use correct ibrav instead

     Subspace diagonalization in iterative solution of the eigenvalue problem:
     a serial algorithm will be used

 
     G-vector sticks info
     --------------------
     sticks:   dense  smooth     PW     G-vecs:    dense   smooth      PW
     Sum        2109    1055    269               136969    48375    6059
 
     Using Slab Decomposition
 


     bravais-lattice index     =            0
     lattice parameter (alat)  =       8.6638  a.u.
     unit-cell volume          =    2181.5129 (a.u.)^3
     number of atoms/cell      =           16
     number of atomic types    =            2
     number of electrons       =       292.00
     number of Kohn-Sham states=          175
     kinetic-energy cutoff     =      30.0000  Ry
     charge density cutoff     =     240.0000  Ry
     scf convergence threshold =      1.0E-06
     mixing beta               =       0.7000
     number of iterations used =            8  plain     mixing
     Exchange-correlation= SLA  PW   PBE  PBE
                           (   1   4   3   4   0   0   0)

     celldm(1)=   8.663839  celldm(2)=   0.000000  celldm(3)=   0.000000
     celldm(4)=   0.000000  celldm(5)=   0.000000  celldm(6)=   0.000000

     crystal axes: (cart. coord. in units of alat)
               a(1) = (   1.000000   0.000000   0.000000 )  
               a(2) = (   0.000000   1.469505   0.000000 )  
               a(3) = (   0.000000   0.000000   2.282736 )  

     reciprocal axes: (cart. coord. in units 2 pi/alat)
               b(1) = (  1.000000  0.000000  0.000000 )  
               b(2) = (  0.000000  0.680501  0.000000 )  
               b(3) = (  0.000000  0.000000  0.438071 )  


     PseudoPot. # 1 for Pr read from file:
     /home/pragov/projects/rrg-bengioy-ad/pragov/crystal_structure_design/SSSP/Pr.GGA-PBE-paw-v1.0.UPF
     MD5 check sum: b5e1e58e76df433569641143f671cc27
     Pseudo is Projector augmented-wave + core cor, Zval = 13.0
     Generated using ATOMPAW code
     Shape of augmentation charge: BESSEL
     Using radial grid of 1103 points,  8 beta functions with: 
                l(1) =   0
                l(2) =   0
                l(3) =   1
                l(4) =   1
                l(5) =   2
                l(6) =   2
                l(7) =   3
                l(8) =   3
     Q(r) pseudized with 0 coefficients 


     PseudoPot. # 2 for Zn read from file:
     /home/pragov/projects/rrg-bengioy-ad/pragov/crystal_structure_design/SSSP/Zn_pbe_v1.uspp.F.UPF
     MD5 check sum: df62231357ef9e81f77b2b3087fa5675
     Pseudo is Ultrasoft, Zval = 20.0
     Generated by new atomic code, or converted to UPF format
     Using radial grid of  943 points,  6 beta functions with: 
                l(1) =   0
                l(2) =   0
                l(3) =   1
                l(4) =   1
                l(5) =   2
                l(6) =   2
     Q(r) pseudized with  8 coefficients,  rinner =    1.100   1.100   1.100
                                                       1.100   1.100

     atomic species   valence    mass     pseudopotential
        Pr            13.00   140.90766     Pr( 1.00)
        Zn            20.00    65.38000     Zn( 1.00)

      8 Sym. Ops., with inversion, found ( 6 have fractional translation)


                                    s                        frac. trans.

      isym =  1     identity                                     

 cryst.   s( 1) = (     1          0          0      )
                  (     0          1          0      )
                  (     0          0          1      )

 cart.    s( 1) = (  1.0000000  0.0000000  0.0000000 )
                  (  0.0000000  1.0000000  0.0000000 )
                  (  0.0000000  0.0000000  1.0000000 )


      isym =  2     180 deg rotation - cart. axis [0,0,1]        

 cryst.   s( 2) = (    -1          0          0      )    f =(  0.0000000 )
                  (     0         -1          0      )       (  0.5000000 )
                  (     0          0          1      )       (  0.5000000 )

 cart.    s( 2) = ( -1.0000000  0.0000000  0.0000000 )    f =(  0.0000000 )
                  (  0.0000000 -1.0000000  0.0000000 )       (  0.7347525 )
                  (  0.0000000  0.0000000  1.0000000 )       (  1.1413680 )


      isym =  3     180 deg rotation - cart. axis [0,1,0]        

 cryst.   s( 3) = (    -1          0          0      )    f =(  0.5000000 )
                  (     0          1          0      )       ( -0.5000000 )
                  (     0          0         -1      )       (  0.5000000 )

 cart.    s( 3) = ( -1.0000000  0.0000000  0.0000000 )    f =(  0.5000000 )
                  (  0.0000000  1.0000000  0.0000000 )       ( -0.7347525 )
                  (  0.0000000  0.0000000 -1.0000000 )       (  1.1413680 )


      isym =  4     180 deg rotation - cart. axis [1,0,0]        

 cryst.   s( 4) = (     1          0          0      )    f =( -0.5000000 )
                  (     0         -1          0      )       (  0.0000000 )
                  (     0          0         -1      )       ( -0.0000000 )

 cart.    s( 4) = (  1.0000000  0.0000000  0.0000000 )    f =( -0.5000000 )
                  (  0.0000000 -1.0000000  0.0000000 )       (  0.0000000 )
                  (  0.0000000  0.0000000 -1.0000000 )       ( -0.0000000 )


      isym =  5     inversion                                    

 cryst.   s( 5) = (    -1          0          0      )
                  (     0         -1          0      )
                  (     0          0         -1      )

 cart.    s( 5) = ( -1.0000000  0.0000000  0.0000000 )
                  (  0.0000000 -1.0000000  0.0000000 )
                  (  0.0000000  0.0000000 -1.0000000 )


      isym =  6     inv. 180 deg rotation - cart. axis [0,0,1]   

 cryst.   s( 6) = (     1          0          0      )    f =(  0.0000000 )
                  (     0          1          0      )       ( -0.5000000 )
                  (     0          0         -1      )       (  0.5000000 )

 cart.    s( 6) = (  1.0000000  0.0000000  0.0000000 )    f =(  0.0000000 )
                  (  0.0000000  1.0000000  0.0000000 )       ( -0.7347525 )
                  (  0.0000000  0.0000000 -1.0000000 )       (  1.1413680 )


      isym =  7     inv. 180 deg rotation - cart. axis [0,1,0]   

 cryst.   s( 7) = (     1          0          0      )    f =( -0.5000000 )
                  (     0         -1          0      )       (  0.5000000 )
                  (     0          0          1      )       (  0.5000000 )

 cart.    s( 7) = (  1.0000000  0.0000000  0.0000000 )    f =( -0.5000000 )
                  (  0.0000000 -1.0000000  0.0000000 )       (  0.7347525 )
                  (  0.0000000  0.0000000  1.0000000 )       (  1.1413680 )


      isym =  8     inv. 180 deg rotation - cart. axis [1,0,0]   

 cryst.   s( 8) = (    -1          0          0      )    f =(  0.5000000 )
                  (     0          1          0      )       (  0.0000000 )
                  (     0          0          1      )       (  0.0000000 )

 cart.    s( 8) = ( -1.0000000  0.0000000  0.0000000 )    f =(  0.5000000 )
                  (  0.0000000  1.0000000  0.0000000 )       (  0.0000000 )
                  (  0.0000000  0.0000000  1.0000000 )       (  0.0000000 )


   Cartesian axes

     site n.     atom                  positions (alat units)
         1           Pr  tau(   1) = (   0.2500000   0.4057039   1.5035902  )
         2           Pr  tau(   2) = (   0.2500000   1.1404563   1.9205137  )
         3           Pr  tau(   3) = (   0.7500000   1.0638011   0.7791457  )
         4           Pr  tau(   4) = (   0.7500000   0.3290486   0.3622223  )
         5           Zn  tau(   5) = (   0.2500000   0.7860690   0.2412258  )
         6           Zn  tau(   6) = (   0.2500000   0.0513166   0.9001421  )
         7           Zn  tau(   7) = (   0.7500000   0.6834359   2.0415101  )
         8           Zn  tau(   8) = (   0.7500000   1.4181883   1.3825938  )
         9           Zn  tau(   9) = (   0.2500000   1.3443046   0.3356877  )
        10           Zn  tau(  10) = (   0.2500000   0.6095521   0.8056802  )
        11           Zn  tau(  11) = (   0.7500000   0.1252003   1.9470482  )
        12           Zn  tau(  12) = (   0.7500000   0.8599528   1.4770557  )
        13           Zn  tau(  13) = (   0.2500000   0.3189751   2.1833867  )
        14           Zn  tau(  14) = (   0.2500000   1.0537276   1.2407172  )
        15           Zn  tau(  15) = (   0.7500000   1.1505298   0.0993492  )
        16           Zn  tau(  16) = (   0.7500000   0.4157773   1.0420187  )

   Crystallographic axes

     site n.     atom                  positions (cryst. coord.)
         1           Pr  tau(   1) = (  0.2500000  0.2760820  0.6586790  )
         2           Pr  tau(   2) = (  0.2500000  0.7760820  0.8413210  )
         3           Pr  tau(   3) = (  0.7500000  0.7239180  0.3413210  )
         4           Pr  tau(   4) = (  0.7500000  0.2239180  0.1586790  )
         5           Zn  tau(   5) = (  0.2500000  0.5349210  0.1056740  )
         6           Zn  tau(   6) = (  0.2500000  0.0349210  0.3943260  )
         7           Zn  tau(   7) = (  0.7500000  0.4650790  0.8943260  )
         8           Zn  tau(   8) = (  0.7500000  0.9650790  0.6056740  )
         9           Zn  tau(   9) = (  0.2500000  0.9148010  0.1470550  )
        10           Zn  tau(  10) = (  0.2500000  0.4148010  0.3529450  )
        11           Zn  tau(  11) = (  0.7500000  0.0851990  0.8529450  )
        12           Zn  tau(  12) = (  0.7500000  0.5851990  0.6470550  )
        13           Zn  tau(  13) = (  0.2500000  0.2170630  0.9564780  )
        14           Zn  tau(  14) = (  0.2500000  0.7170630  0.5435220  )
        15           Zn  tau(  15) = (  0.7500000  0.7829370  0.0435220  )
        16           Zn  tau(  16) = (  0.7500000  0.2829370  0.4564780  )

     number of k points=     1  Methfessel-Paxton smearing, width (Ry)=  0.0010
                       cart. coord. in units 2pi/alat
        k(    1) = (   0.0000000   0.0000000   0.0000000), wk =   2.0000000

                       cryst. coord.
        k(    1) = (   0.0000000   0.0000000   0.0000000), wk =   2.0000000

     Dense  grid:    68485 G-vectors     FFT dimensions: (  48,  64, 100)

     Smooth grid:    24188 G-vectors     FFT dimensions: (  32,  48,  72)

     Dynamical RAM for                 wfc:       8.08 MB

     Dynamical RAM for     wfc (w. buffer):       8.08 MB

     Dynamical RAM for           str. fact:       2.09 MB

     Dynamical RAM for           local pot:       0.00 MB

     Dynamical RAM for          nlocal pot:      15.89 MB

     Dynamical RAM for                qrad:       5.97 MB

     Dynamical RAM for          rho,v,vnew:      10.17 MB

     Dynamical RAM for               rhoin:       3.39 MB

     Dynamical RAM for            rho*nmix:      16.72 MB

     Dynamical RAM for           G-vectors:       4.10 MB

     Dynamical RAM for          h,s,v(r/c):       2.80 MB

     Dynamical RAM for          <psi|beta>:       0.46 MB

     Dynamical RAM for                 psi:      16.17 MB

     Dynamical RAM for                hpsi:      16.17 MB

     Dynamical RAM for                spsi:      16.17 MB

     Dynamical RAM for      wfcinit/wfcrot:      28.08 MB

     Dynamical RAM for           addusdens:     592.51 MB

     Dynamical RAM for          addusforce:     616.17 MB

     Dynamical RAM for         addusstress:     608.19 MB

     Estimated static dynamical RAM per process >      64.55 MB

     Estimated max dynamical RAM per process >     697.44 MB

     Initial potential from superposition of free atoms

     starting charge     291.9686, renormalised to     292.0000
     Starting wfcs are  284 randomized atomic wfcs
     Checking if some PAW data can be deallocated... 

     total cpu time spent up to now is       18.9 secs

     Self-consistent Calculation

     iteration #  1     ecut=    30.00 Ry     beta= 0.70
     Davidson diagonalization with overlap

---- Real-time Memory Report at c_bands before calling an iterative solver
           897 MiB given to the printing process from OS
             0 MiB allocation reported by mallinfo(arena+hblkhd)
        172605 MiB available memory on the node where the printing process lives
------------------
     ethr =  1.00E-02,  avg # of iterations =  2.0

     total cpu time spent up to now is       30.2 secs

     total energy              =   -7561.71098840 Ry
     estimated scf accuracy    <      10.05173703 Ry

     iteration #  2     ecut=    30.00 Ry     beta= 0.70
     Davidson diagonalization with overlap

---- Real-time Memory Report at c_bands before calling an iterative solver
          1235 MiB given to the printing process from OS
             0 MiB allocation reported by mallinfo(arena+hblkhd)
        172518 MiB available memory on the node where the printing process lives
------------------
     ethr =  3.44E-03,  avg # of iterations =  9.0

     total cpu time spent up to now is       46.6 secs

     total energy              =   -7571.56348276 Ry
     estimated scf accuracy    <      58.39367991 Ry

     iteration #  3     ecut=    30.00 Ry     beta= 0.70
     Davidson diagonalization with overlap

---- Real-time Memory Report at c_bands before calling an iterative solver
          1237 MiB given to the printing process from OS
             0 MiB allocation reported by mallinfo(arena+hblkhd)
        172520 MiB available memory on the node where the printing process lives
------------------
     ethr =  3.44E-03,  avg # of iterations =  6.0

     total cpu time spent up to now is       61.0 secs

     total energy              =   -7574.04182807 Ry
     estimated scf accuracy    <      16.08835662 Ry

     iteration #  4     ecut=    30.00 Ry     beta= 0.70
     Davidson diagonalization with overlap

---- Real-time Memory Report at c_bands before calling an iterative solver
          1238 MiB given to the printing process from OS
             0 MiB allocation reported by mallinfo(arena+hblkhd)
        172519 MiB available memory on the node where the printing process lives
------------------
     ethr =  3.44E-03,  avg # of iterations =  1.0

     total cpu time spent up to now is       70.3 secs

     total energy              =   -7573.25231448 Ry
     estimated scf accuracy    <      14.53576243 Ry

     iteration #  5     ecut=    30.00 Ry     beta= 0.70
     Davidson diagonalization with overlap

---- Real-time Memory Report at c_bands before calling an iterative solver
          1238 MiB given to the printing process from OS
             0 MiB allocation reported by mallinfo(arena+hblkhd)
        172512 MiB available memory on the node where the printing process lives
------------------
     ethr =  3.44E-03,  avg # of iterations =  2.0

     total cpu time spent up to now is       76.6 secs

     total energy              =   -7572.12756283 Ry
     estimated scf accuracy    <      12.87200953 Ry

     iteration #  6     ecut=    30.00 Ry     beta= 0.70
     Davidson diagonalization with overlap

---- Real-time Memory Report at c_bands before calling an iterative solver
          1238 MiB given to the printing process from OS
             0 MiB allocation reported by mallinfo(arena+hblkhd)
        172518 MiB available memory on the node where the printing process lives
------------------
     ethr =  3.44E-03,  avg # of iterations =  4.0

     total cpu time spent up to now is       81.4 secs

     total energy              =   -7569.17919235 Ry
     estimated scf accuracy    <      10.33828735 Ry

     iteration #  7     ecut=    30.00 Ry     beta= 0.70
     Davidson diagonalization with overlap

---- Real-time Memory Report at c_bands before calling an iterative solver
          1238 MiB given to the printing process from OS
             0 MiB allocation reported by mallinfo(arena+hblkhd)
        172520 MiB available memory on the node where the printing process lives
------------------
     ethr =  3.44E-03,  avg # of iterations =  5.0

     total cpu time spent up to now is       91.6 secs

     total energy              =   -7572.73120794 Ry
     estimated scf accuracy    <     142.92644720 Ry

     iteration #  8     ecut=    30.00 Ry     beta= 0.70
     Davidson diagonalization with overlap

---- Real-time Memory Report at c_bands before calling an iterative solver
          1238 MiB given to the printing process from OS
             0 MiB allocation reported by mallinfo(arena+hblkhd)
        172523 MiB available memory on the node where the printing process lives
------------------
     ethr =  3.44E-03,  avg # of iterations =  1.0

     total cpu time spent up to now is       94.6 secs

     total energy              =   -7567.81004852 Ry
     estimated scf accuracy    <     155.75372621 Ry

     iteration #  9     ecut=    30.00 Ry     beta= 0.70
     Davidson diagonalization with overlap

---- Real-time Memory Report at c_bands before calling an iterative solver
          1238 MiB given to the printing process from OS
             0 MiB allocation reported by mallinfo(arena+hblkhd)
        172521 MiB available memory on the node where the printing process lives
------------------
     ethr =  3.44E-03,  avg # of iterations =  1.0

     total cpu time spent up to now is       98.3 secs

     total energy              =   -7571.31808609 Ry
     estimated scf accuracy    <       3.69331750 Ry

     iteration # 10     ecut=    30.00 Ry     beta= 0.70
     Davidson diagonalization with overlap

---- Real-time Memory Report at c_bands before calling an iterative solver
          1238 MiB given to the printing process from OS
             0 MiB allocation reported by mallinfo(arena+hblkhd)
        172521 MiB available memory on the node where the printing process lives
------------------
     ethr =  1.26E-03,  avg # of iterations =  2.0

     total cpu time spent up to now is      108.5 secs

     total energy              =   -7570.43874361 Ry
     estimated scf accuracy    <       3.95059922 Ry

     iteration # 11     ecut=    30.00 Ry     beta= 0.70
     Davidson diagonalization with overlap

---- Real-time Memory Report at c_bands before calling an iterative solver
          1238 MiB given to the printing process from OS
             0 MiB allocation reported by mallinfo(arena+hblkhd)
        172521 MiB available memory on the node where the printing process lives
------------------
     ethr =  1.26E-03,  avg # of iterations =  2.0

     total cpu time spent up to now is      120.3 secs

     total energy              =   -7571.48971865 Ry
     estimated scf accuracy    <      65.07808914 Ry

     iteration # 12     ecut=    30.00 Ry     beta= 0.70
     Davidson diagonalization with overlap

---- Real-time Memory Report at c_bands before calling an iterative solver
          1238 MiB given to the printing process from OS
             0 MiB allocation reported by mallinfo(arena+hblkhd)
        172522 MiB available memory on the node where the printing process lives
------------------
     ethr =  1.26E-03,  avg # of iterations =  1.0

     total cpu time spent up to now is      130.1 secs

     total energy              =   -7571.00351378 Ry
     estimated scf accuracy    <      49.11062957 Ry

     iteration # 13     ecut=    30.00 Ry     beta= 0.70
     Davidson diagonalization with overlap

---- Real-time Memory Report at c_bands before calling an iterative solver
          1240 MiB given to the printing process from OS
             0 MiB allocation reported by mallinfo(arena+hblkhd)
        172524 MiB available memory on the node where the printing process lives
------------------
     ethr =  1.26E-03,  avg # of iterations =  1.0

     total cpu time spent up to now is      140.8 secs

     total energy              =   -7570.86803331 Ry
     estimated scf accuracy    <      31.39524888 Ry

     iteration # 14     ecut=    30.00 Ry     beta= 0.70
     Davidson diagonalization with overlap

---- Real-time Memory Report at c_bands before calling an iterative solver
          1240 MiB given to the printing process from OS
             0 MiB allocation reported by mallinfo(arena+hblkhd)
        172523 MiB available memory on the node where the printing process lives
------------------
     ethr =  1.26E-03,  avg # of iterations =  1.0

     total cpu time spent up to now is      151.6 secs

     total energy              =   -7571.14267121 Ry
     estimated scf accuracy    <       0.95696839 Ry

     iteration # 15     ecut=    30.00 Ry     beta= 0.70
     Davidson diagonalization with overlap

---- Real-time Memory Report at c_bands before calling an iterative solver
          1240 MiB given to the printing process from OS
             0 MiB allocation reported by mallinfo(arena+hblkhd)
        172524 MiB available memory on the node where the printing process lives
------------------
     ethr =  3.28E-04,  avg # of iterations =  2.0

     total cpu time spent up to now is      161.0 secs

     total energy              =   -7571.13715876 Ry
     estimated scf accuracy    <       0.55110634 Ry

     iteration # 16     ecut=    30.00 Ry     beta= 0.70
     Davidson diagonalization with overlap

---- Real-time Memory Report at c_bands before calling an iterative solver
          1240 MiB given to the printing process from OS
             0 MiB allocation reported by mallinfo(arena+hblkhd)
        172517 MiB available memory on the node where the printing process lives
------------------
     ethr =  1.89E-04,  avg # of iterations =  1.0

     total cpu time spent up to now is      167.5 secs

     total energy              =   -7571.13343200 Ry
     estimated scf accuracy    <       0.40824354 Ry

     iteration # 17     ecut=    30.00 Ry     beta= 0.70
     Davidson diagonalization with overlap

---- Real-time Memory Report at c_bands before calling an iterative solver
          1240 MiB given to the printing process from OS
             0 MiB allocation reported by mallinfo(arena+hblkhd)
        172517 MiB available memory on the node where the printing process lives
------------------
     ethr =  1.40E-04,  avg # of iterations =  1.0

     total cpu time spent up to now is      176.4 secs

     total energy              =   -7571.12394930 Ry
     estimated scf accuracy    <       1.57322289 Ry

     iteration # 18     ecut=    30.00 Ry     beta= 0.70
     Davidson diagonalization with overlap

---- Real-time Memory Report at c_bands before calling an iterative solver
          1240 MiB given to the printing process from OS
             0 MiB allocation reported by mallinfo(arena+hblkhd)
        172521 MiB available memory on the node where the printing process lives
------------------
     ethr =  1.40E-04,  avg # of iterations =  1.0

     total cpu time spent up to now is      185.5 secs

     total energy              =   -7571.12585319 Ry
     estimated scf accuracy    <       0.79467231 Ry

     iteration # 19     ecut=    30.00 Ry     beta= 0.70
     Davidson diagonalization with overlap

---- Real-time Memory Report at c_bands before calling an iterative solver
          1240 MiB given to the printing process from OS
             0 MiB allocation reported by mallinfo(arena+hblkhd)
        172524 MiB available memory on the node where the printing process lives
------------------
     ethr =  1.40E-04,  avg # of iterations =  1.0

     total cpu time spent up to now is      190.5 secs

     total energy              =   -7571.12462957 Ry
     estimated scf accuracy    <       0.79990345 Ry

     iteration # 20     ecut=    30.00 Ry     beta= 0.70
     Davidson diagonalization with overlap

---- Real-time Memory Report at c_bands before calling an iterative solver
          1240 MiB given to the printing process from OS
             0 MiB allocation reported by mallinfo(arena+hblkhd)
        172525 MiB available memory on the node where the printing process lives
------------------
     ethr =  1.40E-04,  avg # of iterations =  1.0

     total cpu time spent up to now is      193.5 secs

     WARNING: integrated charge=   291.99994814, expected=   292.00000000

     total energy              =   -7571.12080725 Ry
     estimated scf accuracy    <       0.35925796 Ry

     iteration # 21     ecut=    30.00 Ry     beta= 0.70
     Davidson diagonalization with overlap

---- Real-time Memory Report at c_bands before calling an iterative solver
          1240 MiB given to the printing process from OS
             0 MiB allocation reported by mallinfo(arena+hblkhd)
        172524 MiB available memory on the node where the printing process lives
------------------
     ethr =  1.23E-04,  avg # of iterations =  1.0

     total cpu time spent up to now is      196.6 secs

     WARNING: integrated charge=   291.99991157, expected=   292.00000000

     total energy              =   -7571.10215711 Ry
     estimated scf accuracy    <      11.61223706 Ry

     iteration # 22     ecut=    30.00 Ry     beta= 0.70
     Davidson diagonalization with overlap

---- Real-time Memory Report at c_bands before calling an iterative solver
          1240 MiB given to the printing process from OS
             0 MiB allocation reported by mallinfo(arena+hblkhd)
        172524 MiB available memory on the node where the printing process lives
------------------
     ethr =  1.23E-04,  avg # of iterations =  2.0

     total cpu time spent up to now is      204.2 secs

     WARNING: integrated charge=   291.99993697, expected=   292.00000000

     total energy              =   -7571.03088771 Ry
     estimated scf accuracy    <      13.93271246 Ry

     iteration # 23     ecut=    30.00 Ry     beta= 0.70
     Davidson diagonalization with overlap

---- Real-time Memory Report at c_bands before calling an iterative solver
          1240 MiB given to the printing process from OS
             0 MiB allocation reported by mallinfo(arena+hblkhd)
        172526 MiB available memory on the node where the printing process lives
------------------
     ethr =  1.23E-04,  avg # of iterations =  1.0

     total cpu time spent up to now is      210.2 secs

     WARNING: integrated charge=   291.99993543, expected=   292.00000000

     total energy              =   -7571.12342325 Ry
     estimated scf accuracy    <       0.30059169 Ry

     iteration # 24     ecut=    30.00 Ry     beta= 0.70
     Davidson diagonalization with overlap

---- Real-time Memory Report at c_bands before calling an iterative solver
          1240 MiB given to the printing process from OS
             0 MiB allocation reported by mallinfo(arena+hblkhd)
        172894 MiB available memory on the node where the printing process lives
------------------
     ethr =  1.03E-04,  avg # of iterations =  1.0

     total cpu time spent up to now is      213.4 secs

     WARNING: integrated charge=   291.99994478, expected=   292.00000000

     total energy              =   -7571.12485155 Ry
     estimated scf accuracy    <       0.06456536 Ry

     iteration # 25     ecut=    30.00 Ry     beta= 0.70
     Davidson diagonalization with overlap

---- Real-time Memory Report at c_bands before calling an iterative solver
          1240 MiB given to the printing process from OS
             0 MiB allocation reported by mallinfo(arena+hblkhd)
        172896 MiB available memory on the node where the printing process lives
------------------
     ethr =  2.21E-05,  avg # of iterations =  2.0

     total cpu time spent up to now is      226.5 secs

     WARNING: integrated charge=   291.99996331, expected=   292.00000000

     total energy              =   -7571.12822565 Ry
     estimated scf accuracy    <       0.21142426 Ry

     iteration # 26     ecut=    30.00 Ry     beta= 0.70
     Davidson diagonalization with overlap

---- Real-time Memory Report at c_bands before calling an iterative solver
          1240 MiB given to the printing process from OS
             0 MiB allocation reported by mallinfo(arena+hblkhd)
        172899 MiB available memory on the node where the printing process lives
------------------
     ethr =  2.21E-05,  avg # of iterations =  1.0

     total cpu time spent up to now is      237.7 secs

     total energy              =   -7571.12894137 Ry
     estimated scf accuracy    <       0.02214534 Ry

     iteration # 27     ecut=    30.00 Ry     beta= 0.70
     Davidson diagonalization with overlap

---- Real-time Memory Report at c_bands before calling an iterative solver
          1240 MiB given to the printing process from OS
             0 MiB allocation reported by mallinfo(arena+hblkhd)
        172899 MiB available memory on the node where the printing process lives
------------------
     ethr =  7.58E-06,  avg # of iterations =  2.0

     total cpu time spent up to now is      247.5 secs

     total energy              =   -7571.11782681 Ry
     estimated scf accuracy    <       4.61373711 Ry

     iteration # 28     ecut=    30.00 Ry     beta= 0.70
     Davidson diagonalization with overlap

---- Real-time Memory Report at c_bands before calling an iterative solver
          1240 MiB given to the printing process from OS
             0 MiB allocation reported by mallinfo(arena+hblkhd)
        172896 MiB available memory on the node where the printing process lives
------------------
     ethr =  7.58E-06,  avg # of iterations =  6.0

     total cpu time spent up to now is      258.9 secs

     total energy              =   -7571.12267296 Ry
     estimated scf accuracy    <       1.95760413 Ry

     iteration # 29     ecut=    30.00 Ry     beta= 0.70
     Davidson diagonalization with overlap

---- Real-time Memory Report at c_bands before calling an iterative solver
          1240 MiB given to the printing process from OS
             0 MiB allocation reported by mallinfo(arena+hblkhd)
        172899 MiB available memory on the node where the printing process lives
------------------
     ethr =  7.58E-06,  avg # of iterations =  3.0

     total cpu time spent up to now is      262.1 secs

     total energy              =   -7571.12967793 Ry
     estimated scf accuracy    <       0.03094433 Ry

     iteration # 30     ecut=    30.00 Ry     beta= 0.70
     Davidson diagonalization with overlap

---- Real-time Memory Report at c_bands before calling an iterative solver
          1240 MiB given to the printing process from OS
             0 MiB allocation reported by mallinfo(arena+hblkhd)
        172901 MiB available memory on the node where the printing process lives
------------------
     ethr =  7.58E-06,  avg # of iterations =  1.0

     total cpu time spent up to now is      265.2 secs

     total energy              =   -7571.13015615 Ry
     estimated scf accuracy    <       0.01540408 Ry

     iteration # 31     ecut=    30.00 Ry     beta= 0.70
     Davidson diagonalization with overlap

---- Real-time Memory Report at c_bands before calling an iterative solver
          1240 MiB given to the printing process from OS
             0 MiB allocation reported by mallinfo(arena+hblkhd)
        172901 MiB available memory on the node where the printing process lives
------------------
     ethr =  5.28E-06,  avg # of iterations =  2.0

     total cpu time spent up to now is      278.3 secs

     total energy              =   -7571.12870600 Ry
     estimated scf accuracy    <       0.70288679 Ry

     iteration # 32     ecut=    30.00 Ry     beta= 0.70
     Davidson diagonalization with overlap

---- Real-time Memory Report at c_bands before calling an iterative solver
          1240 MiB given to the printing process from OS
             0 MiB allocation reported by mallinfo(arena+hblkhd)
        172901 MiB available memory on the node where the printing process lives
------------------
     ethr =  5.28E-06,  avg # of iterations =  1.0

     total cpu time spent up to now is      289.0 secs

     total energy              =   -7571.12799237 Ry
     estimated scf accuracy    <       0.14619113 Ry

     iteration # 33     ecut=    30.00 Ry     beta= 0.70
     Davidson diagonalization with overlap

---- Real-time Memory Report at c_bands before calling an iterative solver
          1240 MiB given to the printing process from OS
             0 MiB allocation reported by mallinfo(arena+hblkhd)
        172903 MiB available memory on the node where the printing process lives
------------------
     ethr =  5.28E-06,  avg # of iterations =  2.0

     total cpu time spent up to now is      300.8 secs

     total energy              =   -7571.12735739 Ry
     estimated scf accuracy    <       0.63500162 Ry

     iteration # 34     ecut=    30.00 Ry     beta= 0.70
     Davidson diagonalization with overlap

---- Real-time Memory Report at c_bands before calling an iterative solver
          1240 MiB given to the printing process from OS
             0 MiB allocation reported by mallinfo(arena+hblkhd)
        172905 MiB available memory on the node where the printing process lives
------------------
     ethr =  5.28E-06,  avg # of iterations =  2.0

     total cpu time spent up to now is      303.8 secs

     total energy              =   -7571.13006587 Ry
     estimated scf accuracy    <       0.00763122 Ry

     iteration # 35     ecut=    30.00 Ry     beta= 0.70
     Davidson diagonalization with overlap

---- Real-time Memory Report at c_bands before calling an iterative solver
          1240 MiB given to the printing process from OS
             0 MiB allocation reported by mallinfo(arena+hblkhd)
        172907 MiB available memory on the node where the printing process lives
------------------
     ethr =  2.61E-06,  avg # of iterations =  1.0

     total cpu time spent up to now is      306.9 secs

     total energy              =   -7571.13029434 Ry
     estimated scf accuracy    <       0.00754847 Ry

     iteration # 36     ecut=    30.00 Ry     beta= 0.70
     Davidson diagonalization with overlap

---- Real-time Memory Report at c_bands before calling an iterative solver
          1240 MiB given to the printing process from OS
             0 MiB allocation reported by mallinfo(arena+hblkhd)
        172906 MiB available memory on the node where the printing process lives
------------------
     ethr =  2.59E-06,  avg # of iterations =  1.0

     total cpu time spent up to now is      316.0 secs

     total energy              =   -7571.13020692 Ry
     estimated scf accuracy    <       0.00303604 Ry

     iteration # 37     ecut=    30.00 Ry     beta= 0.70
     Davidson diagonalization with overlap

---- Real-time Memory Report at c_bands before calling an iterative solver
          1240 MiB given to the printing process from OS
             0 MiB allocation reported by mallinfo(arena+hblkhd)
        172908 MiB available memory on the node where the printing process lives
------------------
     ethr =  1.04E-06,  avg # of iterations =  1.0

     total cpu time spent up to now is      327.3 secs

     total energy              =   -7571.12874575 Ry
     estimated scf accuracy    <       0.75400302 Ry

     iteration # 38     ecut=    30.00 Ry     beta= 0.70
     Davidson diagonalization with overlap

---- Real-time Memory Report at c_bands before calling an iterative solver
          1240 MiB given to the printing process from OS
             0 MiB allocation reported by mallinfo(arena+hblkhd)
        172908 MiB available memory on the node where the printing process lives
------------------
     ethr =  1.04E-06,  avg # of iterations =  2.0

     total cpu time spent up to now is      337.0 secs

     total energy              =   -7571.12811833 Ry
     estimated scf accuracy    <       0.65632604 Ry

     iteration # 39     ecut=    30.00 Ry     beta= 0.70
     Davidson diagonalization with overlap

---- Real-time Memory Report at c_bands before calling an iterative solver
          1242 MiB given to the printing process from OS
             0 MiB allocation reported by mallinfo(arena+hblkhd)
        172896 MiB available memory on the node where the printing process lives
------------------
     ethr =  1.04E-06,  avg # of iterations =  1.0

     total cpu time spent up to now is      340.7 secs

     total energy              =   -7571.12988493 Ry
     estimated scf accuracy    <       0.02806036 Ry

     iteration # 40     ecut=    30.00 Ry     beta= 0.70
     Davidson diagonalization with overlap

---- Real-time Memory Report at c_bands before calling an iterative solver
          1242 MiB given to the printing process from OS
             0 MiB allocation reported by mallinfo(arena+hblkhd)
        172898 MiB available memory on the node where the printing process lives
------------------
     ethr =  1.04E-06,  avg # of iterations =  1.0

     total cpu time spent up to now is      343.7 secs

     total energy              =   -7571.13020729 Ry
     estimated scf accuracy    <       0.01062947 Ry

     iteration # 41     ecut=    30.00 Ry     beta= 0.70
     Davidson diagonalization with overlap

---- Real-time Memory Report at c_bands before calling an iterative solver
          1242 MiB given to the printing process from OS
             0 MiB allocation reported by mallinfo(arena+hblkhd)
        172900 MiB available memory on the node where the printing process lives
------------------
     ethr =  1.04E-06,  avg # of iterations =  1.0

     total cpu time spent up to now is      348.4 secs

     total energy              =   -7571.12992688 Ry
     estimated scf accuracy    <       0.15980127 Ry

     iteration # 42     ecut=    30.00 Ry     beta= 0.70
     Davidson diagonalization with overlap

---- Real-time Memory Report at c_bands before calling an iterative solver
          1242 MiB given to the printing process from OS
             0 MiB allocation reported by mallinfo(arena+hblkhd)
        172904 MiB available memory on the node where the printing process lives
------------------
     ethr =  1.04E-06,  avg # of iterations =  1.0

     total cpu time spent up to now is      359.0 secs

     total energy              =   -7571.13023889 Ry
     estimated scf accuracy    <       0.00455240 Ry

     iteration # 43     ecut=    30.00 Ry     beta= 0.70
     Davidson diagonalization with overlap

---- Real-time Memory Report at c_bands before calling an iterative solver
          1242 MiB given to the printing process from OS
             0 MiB allocation reported by mallinfo(arena+hblkhd)
        172904 MiB available memory on the node where the printing process lives
------------------
     ethr =  1.04E-06,  avg # of iterations =  5.0

     total cpu time spent up to now is      371.0 secs

     total energy              =   -7571.12749632 Ry
     estimated scf accuracy    <       0.66256968 Ry

     iteration # 44     ecut=    30.00 Ry     beta= 0.70
     Davidson diagonalization with overlap

---- Real-time Memory Report at c_bands before calling an iterative solver
          1242 MiB given to the printing process from OS
             0 MiB allocation reported by mallinfo(arena+hblkhd)
        172902 MiB available memory on the node where the printing process lives
------------------
     ethr =  1.04E-06,  avg # of iterations =  5.0

     total cpu time spent up to now is      383.7 secs

     total energy              =   -7571.13032291 Ry
     estimated scf accuracy    <       0.00555156 Ry

     iteration # 45     ecut=    30.00 Ry     beta= 0.70
     Davidson diagonalization with overlap

---- Real-time Memory Report at c_bands before calling an iterative solver
          1242 MiB given to the printing process from OS
             0 MiB allocation reported by mallinfo(arena+hblkhd)
        172906 MiB available memory on the node where the printing process lives
------------------
     ethr =  1.04E-06,  avg # of iterations =  2.0

     total cpu time spent up to now is      396.6 secs

     total energy              =   -7571.13001703 Ry
     estimated scf accuracy    <       0.01646133 Ry

     iteration # 46     ecut=    30.00 Ry     beta= 0.70
     Davidson diagonalization with overlap

---- Real-time Memory Report at c_bands before calling an iterative solver
          1242 MiB given to the printing process from OS
             0 MiB allocation reported by mallinfo(arena+hblkhd)
        172904 MiB available memory on the node where the printing process lives
------------------
     ethr =  1.04E-06,  avg # of iterations =  1.0

     total cpu time spent up to now is      406.3 secs

     total energy              =   -7571.13030954 Ry
     estimated scf accuracy    <       0.00760651 Ry

     iteration # 47     ecut=    30.00 Ry     beta= 0.70
     Davidson diagonalization with overlap

---- Real-time Memory Report at c_bands before calling an iterative solver
          1242 MiB given to the printing process from OS
             0 MiB allocation reported by mallinfo(arena+hblkhd)
        172907 MiB available memory on the node where the printing process lives
------------------
     ethr =  1.04E-06,  avg # of iterations =  1.0

     total cpu time spent up to now is      415.8 secs

     total energy              =   -7571.13002969 Ry
     estimated scf accuracy    <       0.16750581 Ry

     iteration # 48     ecut=    30.00 Ry     beta= 0.70
     Davidson diagonalization with overlap

---- Real-time Memory Report at c_bands before calling an iterative solver
          1242 MiB given to the printing process from OS
             0 MiB allocation reported by mallinfo(arena+hblkhd)
        172907 MiB available memory on the node where the printing process lives
------------------
     ethr =  1.04E-06,  avg # of iterations =  1.0

     total cpu time spent up to now is      423.2 secs

     total energy              =   -7571.12898419 Ry
     estimated scf accuracy    <       0.43982609 Ry

     iteration # 49     ecut=    30.00 Ry     beta= 0.70
     Davidson diagonalization with overlap

---- Real-time Memory Report at c_bands before calling an iterative solver
          1242 MiB given to the printing process from OS
             0 MiB allocation reported by mallinfo(arena+hblkhd)
        172906 MiB available memory on the node where the printing process lives
------------------
     ethr =  1.04E-06,  avg # of iterations =  2.0

     total cpu time spent up to now is      429.8 secs

     total energy              =   -7571.13026347 Ry
     estimated scf accuracy    <       0.00720009 Ry

     iteration # 50     ecut=    30.00 Ry     beta= 0.70
     Davidson diagonalization with overlap

---- Real-time Memory Report at c_bands before calling an iterative solver
          1242 MiB given to the printing process from OS
             0 MiB allocation reported by mallinfo(arena+hblkhd)
        172894 MiB available memory on the node where the printing process lives
------------------
     ethr =  1.04E-06,  avg # of iterations =  1.0

     total cpu time spent up to now is      432.7 secs

     total energy              =   -7571.13038029 Ry
     estimated scf accuracy    <       0.00070280 Ry

     iteration # 51     ecut=    30.00 Ry     beta= 0.70
     Davidson diagonalization with overlap

---- Real-time Memory Report at c_bands before calling an iterative solver
          1242 MiB given to the printing process from OS
             0 MiB allocation reported by mallinfo(arena+hblkhd)
        172896 MiB available memory on the node where the printing process lives
------------------
     ethr =  2.41E-07,  avg # of iterations =  3.0

     total cpu time spent up to now is      435.8 secs

     total energy              =   -7571.12970842 Ry
     estimated scf accuracy    <       0.24245273 Ry

     iteration # 52     ecut=    30.00 Ry     beta= 0.70
     Davidson diagonalization with overlap

---- Real-time Memory Report at c_bands before calling an iterative solver
          1242 MiB given to the printing process from OS
             0 MiB allocation reported by mallinfo(arena+hblkhd)
        172899 MiB available memory on the node where the printing process lives
------------------
     ethr =  2.41E-07,  avg # of iterations =  5.0

     total cpu time spent up to now is      438.9 secs

     total energy              =   -7571.13010938 Ry
     estimated scf accuracy    <       0.01944702 Ry

     iteration # 53     ecut=    30.00 Ry     beta= 0.70
     Davidson diagonalization with overlap

---- Real-time Memory Report at c_bands before calling an iterative solver
          1242 MiB given to the printing process from OS
             0 MiB allocation reported by mallinfo(arena+hblkhd)
        172900 MiB available memory on the node where the printing process lives
------------------
     ethr =  2.41E-07,  avg # of iterations =  5.0

     total cpu time spent up to now is      442.0 secs

     total energy              =   -7571.13015294 Ry
     estimated scf accuracy    <       0.06567201 Ry

     iteration # 54     ecut=    30.00 Ry     beta= 0.70
     Davidson diagonalization with overlap

---- Real-time Memory Report at c_bands before calling an iterative solver
          1242 MiB given to the printing process from OS
             0 MiB allocation reported by mallinfo(arena+hblkhd)
        172902 MiB available memory on the node where the printing process lives
------------------
     ethr =  2.41E-07,  avg # of iterations =  2.0

     total cpu time spent up to now is      445.0 secs

     total energy              =   -7571.13043151 Ry
     estimated scf accuracy    <       0.00191331 Ry

     iteration # 55     ecut=    30.00 Ry     beta= 0.70
     Davidson diagonalization with overlap

---- Real-time Memory Report at c_bands before calling an iterative solver
          1242 MiB given to the printing process from OS
             0 MiB allocation reported by mallinfo(arena+hblkhd)
        172904 MiB available memory on the node where the printing process lives
------------------
     ethr =  2.41E-07,  avg # of iterations =  1.0

     total cpu time spent up to now is      451.7 secs

     total energy              =   -7571.13044072 Ry
     estimated scf accuracy    <       0.00037609 Ry

     iteration # 56     ecut=    30.00 Ry     beta= 0.70
     Davidson diagonalization with overlap

---- Real-time Memory Report at c_bands before calling an iterative solver
          1242 MiB given to the printing process from OS
             0 MiB allocation reported by mallinfo(arena+hblkhd)
        172907 MiB available memory on the node where the printing process lives
------------------
     ethr =  1.29E-07,  avg # of iterations =  3.0

     total cpu time spent up to now is      460.2 secs

     total energy              =   -7571.13040016 Ry
     estimated scf accuracy    <       0.00502275 Ry

     iteration # 57     ecut=    30.00 Ry     beta= 0.70
     Davidson diagonalization with overlap

---- Real-time Memory Report at c_bands before calling an iterative solver
          1242 MiB given to the printing process from OS
             0 MiB allocation reported by mallinfo(arena+hblkhd)
        172906 MiB available memory on the node where the printing process lives
------------------
     ethr =  1.29E-07,  avg # of iterations =  2.0

     total cpu time spent up to now is      470.6 secs

     total energy              =   -7571.13020697 Ry
     estimated scf accuracy    <       0.09932135 Ry

     iteration # 58     ecut=    30.00 Ry     beta= 0.70
     Davidson diagonalization with overlap

---- Real-time Memory Report at c_bands before calling an iterative solver
          1242 MiB given to the printing process from OS
             0 MiB allocation reported by mallinfo(arena+hblkhd)
        172907 MiB available memory on the node where the printing process lives
------------------
     ethr =  1.29E-07,  avg # of iterations =  5.0

     total cpu time spent up to now is      482.3 secs

     total energy              =   -7571.12964828 Ry
     estimated scf accuracy    <       0.25047718 Ry

     iteration # 59     ecut=    30.00 Ry     beta= 0.70
     Davidson diagonalization with overlap

---- Real-time Memory Report at c_bands before calling an iterative solver
          1242 MiB given to the printing process from OS
             0 MiB allocation reported by mallinfo(arena+hblkhd)
        172907 MiB available memory on the node where the printing process lives
------------------
     ethr =  1.29E-07,  avg # of iterations =  5.0

     total cpu time spent up to now is      493.7 secs

     total energy              =   -7571.13040270 Ry
     estimated scf accuracy    <       0.00077135 Ry

     iteration # 60     ecut=    30.00 Ry     beta= 0.70
     Davidson diagonalization with overlap

---- Real-time Memory Report at c_bands before calling an iterative solver
          1242 MiB given to the printing process from OS
             0 MiB allocation reported by mallinfo(arena+hblkhd)
        172906 MiB available memory on the node where the printing process lives
------------------
     ethr =  1.29E-07,  avg # of iterations =  2.0

     total cpu time spent up to now is      505.9 secs

     total energy              =   -7571.13036706 Ry
     estimated scf accuracy    <       0.01303966 Ry

     iteration # 61     ecut=    30.00 Ry     beta= 0.70
     Davidson diagonalization with overlap

---- Real-time Memory Report at c_bands before calling an iterative solver
          1242 MiB given to the printing process from OS
             0 MiB allocation reported by mallinfo(arena+hblkhd)
        172907 MiB available memory on the node where the printing process lives
------------------
     ethr =  1.29E-07,  avg # of iterations =  1.0

     total cpu time spent up to now is      517.5 secs

     total energy              =   -7571.13038911 Ry
     estimated scf accuracy    <       0.01541861 Ry

     iteration # 62     ecut=    30.00 Ry     beta= 0.70
     Davidson diagonalization with overlap

---- Real-time Memory Report at c_bands before calling an iterative solver
          1242 MiB given to the printing process from OS
             0 MiB allocation reported by mallinfo(arena+hblkhd)
        172896 MiB available memory on the node where the printing process lives
------------------
     ethr =  1.29E-07,  avg # of iterations =  1.0

     total cpu time spent up to now is      521.0 secs

     total energy              =   -7571.13044154 Ry
     estimated scf accuracy    <       0.00064682 Ry

     iteration # 63     ecut=    30.00 Ry     beta= 0.70
     Davidson diagonalization with overlap

---- Real-time Memory Report at c_bands before calling an iterative solver
          1242 MiB given to the printing process from OS
             0 MiB allocation reported by mallinfo(arena+hblkhd)
        172901 MiB available memory on the node where the printing process lives
------------------
     ethr =  1.29E-07,  avg # of iterations =  2.0

     total cpu time spent up to now is      524.2 secs

     total energy              =   -7571.13041021 Ry
     estimated scf accuracy    <       0.00747624 Ry

     iteration # 64     ecut=    30.00 Ry     beta= 0.70
     Davidson diagonalization with overlap

---- Real-time Memory Report at c_bands before calling an iterative solver
          1242 MiB given to the printing process from OS
             0 MiB allocation reported by mallinfo(arena+hblkhd)
        172903 MiB available memory on the node where the printing process lives
------------------
     ethr =  1.29E-07,  avg # of iterations =  1.0

     total cpu time spent up to now is      527.4 secs

     total energy              =   -7571.13044056 Ry
     estimated scf accuracy    <       0.00115945 Ry

     iteration # 65     ecut=    30.00 Ry     beta= 0.70
     Davidson diagonalization with overlap

---- Real-time Memory Report at c_bands before calling an iterative solver
          1242 MiB given to the printing process from OS
             0 MiB allocation reported by mallinfo(arena+hblkhd)
        172904 MiB available memory on the node where the printing process lives
------------------
     ethr =  1.29E-07,  avg # of iterations =  2.0

     total cpu time spent up to now is      531.0 secs

     total energy              =   -7571.13040964 Ry
     estimated scf accuracy    <       0.00170777 Ry

     iteration # 66     ecut=    30.00 Ry     beta= 0.70
     Davidson diagonalization with overlap

---- Real-time Memory Report at c_bands before calling an iterative solver
          1242 MiB given to the printing process from OS
             0 MiB allocation reported by mallinfo(arena+hblkhd)
        172905 MiB available memory on the node where the printing process lives
------------------
     ethr =  1.29E-07,  avg # of iterations =  2.0

     total cpu time spent up to now is      542.1 secs

     total energy              =   -7571.13039522 Ry
     estimated scf accuracy    <       0.00492429 Ry

     iteration # 67     ecut=    30.00 Ry     beta= 0.70
     Davidson diagonalization with overlap

---- Real-time Memory Report at c_bands before calling an iterative solver
          1242 MiB given to the printing process from OS
             0 MiB allocation reported by mallinfo(arena+hblkhd)
        172907 MiB available memory on the node where the printing process lives
------------------
     ethr =  1.29E-07,  avg # of iterations =  2.0

     total cpu time spent up to now is      552.3 secs

     total energy              =   -7571.13024383 Ry
     estimated scf accuracy    <       0.07041494 Ry

     iteration # 68     ecut=    30.00 Ry     beta= 0.70
     Davidson diagonalization with overlap

---- Real-time Memory Report at c_bands before calling an iterative solver
          1242 MiB given to the printing process from OS
             0 MiB allocation reported by mallinfo(arena+hblkhd)
        172907 MiB available memory on the node where the printing process lives
------------------
     ethr =  1.29E-07,  avg # of iterations =  2.0

     total cpu time spent up to now is      561.4 secs

     total energy              =   -7571.13012939 Ry
     estimated scf accuracy    <       0.09540775 Ry

     iteration # 69     ecut=    30.00 Ry     beta= 0.70
     Davidson diagonalization with overlap

---- Real-time Memory Report at c_bands before calling an iterative solver
          1242 MiB given to the printing process from OS
             0 MiB allocation reported by mallinfo(arena+hblkhd)
        172906 MiB available memory on the node where the printing process lives
------------------
     ethr =  1.29E-07,  avg # of iterations =  2.0

     total cpu time spent up to now is      570.4 secs

     total energy              =   -7571.13042993 Ry
     estimated scf accuracy    <       0.00040718 Ry

     iteration # 70     ecut=    30.00 Ry     beta= 0.70
     Davidson diagonalization with overlap

---- Real-time Memory Report at c_bands before calling an iterative solver
          1242 MiB given to the printing process from OS
             0 MiB allocation reported by mallinfo(arena+hblkhd)
        172907 MiB available memory on the node where the printing process lives
------------------
     ethr =  1.29E-07,  avg # of iterations =  1.0

     total cpu time spent up to now is      579.8 secs

     total energy              =   -7571.13042455 Ry
     estimated scf accuracy    <       0.00243907 Ry

     iteration # 71     ecut=    30.00 Ry     beta= 0.70
     Davidson diagonalization with overlap

---- Real-time Memory Report at c_bands before calling an iterative solver
          1242 MiB given to the printing process from OS
             0 MiB allocation reported by mallinfo(arena+hblkhd)
        172906 MiB available memory on the node where the printing process lives
------------------
     ethr =  1.29E-07,  avg # of iterations =  2.0

     total cpu time spent up to now is      592.3 secs

     total energy              =   -7571.13028407 Ry
     estimated scf accuracy    <       0.04616737 Ry

     iteration # 72     ecut=    30.00 Ry     beta= 0.70
     Davidson diagonalization with overlap

---- Real-time Memory Report at c_bands before calling an iterative solver
          1242 MiB given to the printing process from OS
             0 MiB allocation reported by mallinfo(arena+hblkhd)
        172906 MiB available memory on the node where the printing process lives
------------------
     ethr =  1.29E-07,  avg # of iterations =  5.0

     total cpu time spent up to now is      606.9 secs

     total energy              =   -7571.13028724 Ry
     estimated scf accuracy    <       0.00388869 Ry

     iteration # 73     ecut=    30.00 Ry     beta= 0.70
     Davidson diagonalization with overlap

---- Real-time Memory Report at c_bands before calling an iterative solver
          1242 MiB given to the printing process from OS
             0 MiB allocation reported by mallinfo(arena+hblkhd)
        172896 MiB available memory on the node where the printing process lives
------------------
     ethr =  1.29E-07,  avg # of iterations =  5.0

     total cpu time spent up to now is      610.7 secs

     total energy              =   -7571.13002395 Ry
     estimated scf accuracy    <       0.08919087 Ry

     iteration # 74     ecut=    30.00 Ry     beta= 0.70
     Davidson diagonalization with overlap

---- Real-time Memory Report at c_bands before calling an iterative solver
          1242 MiB given to the printing process from OS
             0 MiB allocation reported by mallinfo(arena+hblkhd)
        172902 MiB available memory on the node where the printing process lives
------------------
     ethr =  1.29E-07,  avg # of iterations =  4.0

     total cpu time spent up to now is      613.9 secs

     total energy              =   -7571.13037844 Ry
     estimated scf accuracy    <       0.01161214 Ry

     iteration # 75     ecut=    30.00 Ry     beta= 0.70
     Davidson diagonalization with overlap

---- Real-time Memory Report at c_bands before calling an iterative solver
          1242 MiB given to the printing process from OS
             0 MiB allocation reported by mallinfo(arena+hblkhd)
        172904 MiB available memory on the node where the printing process lives
------------------
     ethr =  1.29E-07,  avg # of iterations =  2.0

     total cpu time spent up to now is      624.6 secs

     total energy              =   -7571.13042776 Ry
     estimated scf accuracy    <       0.00067070 Ry

     iteration # 76     ecut=    30.00 Ry     beta= 0.70
     Davidson diagonalization with overlap

---- Real-time Memory Report at c_bands before calling an iterative solver
          1242 MiB given to the printing process from OS
             0 MiB allocation reported by mallinfo(arena+hblkhd)
        172905 MiB available memory on the node where the printing process lives
------------------
     ethr =  1.29E-07,  avg # of iterations =  5.0

     total cpu time spent up to now is      635.8 secs

     total energy              =   -7571.13029817 Ry
     estimated scf accuracy    <       0.01550808 Ry

     iteration # 77     ecut=    30.00 Ry     beta= 0.70
     Davidson diagonalization with overlap

---- Real-time Memory Report at c_bands before calling an iterative solver
          1242 MiB given to the printing process from OS
             0 MiB allocation reported by mallinfo(arena+hblkhd)
        172903 MiB available memory on the node where the printing process lives
------------------
     ethr =  1.29E-07,  avg # of iterations =  4.0

     total cpu time spent up to now is      647.7 secs

     total energy              =   -7571.13031927 Ry
     estimated scf accuracy    <       0.03718964 Ry

     iteration # 78     ecut=    30.00 Ry     beta= 0.70
     Davidson diagonalization with overlap

---- Real-time Memory Report at c_bands before calling an iterative solver
          1242 MiB given to the printing process from OS
             0 MiB allocation reported by mallinfo(arena+hblkhd)
        172908 MiB available memory on the node where the printing process lives
------------------
     ethr =  1.29E-07,  avg # of iterations =  1.0

     total cpu time spent up to now is      661.4 secs

     total energy              =   -7571.13037746 Ry
     estimated scf accuracy    <       0.01895442 Ry

     iteration # 79     ecut=    30.00 Ry     beta= 0.70
     Davidson diagonalization with overlap

---- Real-time Memory Report at c_bands before calling an iterative solver
          1242 MiB given to the printing process from OS
             0 MiB allocation reported by mallinfo(arena+hblkhd)
        172907 MiB available memory on the node where the printing process lives
------------------
     ethr =  1.29E-07,  avg # of iterations =  2.0

     total cpu time spent up to now is      674.7 secs

     total energy              =   -7571.13030387 Ry
     estimated scf accuracy    <       0.00280005 Ry

     iteration # 80     ecut=    30.00 Ry     beta= 0.70
     Davidson diagonalization with overlap

---- Real-time Memory Report at c_bands before calling an iterative solver
          1242 MiB given to the printing process from OS
             0 MiB allocation reported by mallinfo(arena+hblkhd)
        172909 MiB available memory on the node where the printing process lives
------------------
     ethr =  1.29E-07,  avg # of iterations =  7.0

     total cpu time spent up to now is      690.8 secs

     total energy              =   -7571.12991206 Ry
     estimated scf accuracy    <       0.09990707 Ry

     iteration # 81     ecut=    30.00 Ry     beta= 0.70
     Davidson diagonalization with overlap

---- Real-time Memory Report at c_bands before calling an iterative solver
          1242 MiB given to the printing process from OS
             0 MiB allocation reported by mallinfo(arena+hblkhd)
        172909 MiB available memory on the node where the printing process lives
------------------
     ethr =  1.29E-07,  avg # of iterations =  3.0

     total cpu time spent up to now is      700.0 secs

     total energy              =   -7571.13029774 Ry
     estimated scf accuracy    <       0.03841861 Ry

     iteration # 82     ecut=    30.00 Ry     beta= 0.70
     Davidson diagonalization with overlap

---- Real-time Memory Report at c_bands before calling an iterative solver
          1242 MiB given to the printing process from OS
             0 MiB allocation reported by mallinfo(arena+hblkhd)
        172899 MiB available memory on the node where the printing process lives
------------------
     ethr =  1.29E-07,  avg # of iterations =  5.0

     total cpu time spent up to now is      703.3 secs

     total energy              =   -7571.13038883 Ry
     estimated scf accuracy    <       0.00160495 Ry

     iteration # 83     ecut=    30.00 Ry     beta= 0.70
     Davidson diagonalization with overlap

---- Real-time Memory Report at c_bands before calling an iterative solver
          1242 MiB given to the printing process from OS
             0 MiB allocation reported by mallinfo(arena+hblkhd)
        172902 MiB available memory on the node where the printing process lives
------------------
     ethr =  1.29E-07,  avg # of iterations =  5.0

     total cpu time spent up to now is      707.3 secs

     total energy              =   -7571.13033534 Ry
     estimated scf accuracy    <       0.02332693 Ry

     iteration # 84     ecut=    30.00 Ry     beta= 0.70
     Davidson diagonalization with overlap

---- Real-time Memory Report at c_bands before calling an iterative solver
          1242 MiB given to the printing process from OS
             0 MiB allocation reported by mallinfo(arena+hblkhd)
        172905 MiB available memory on the node where the printing process lives
------------------
     ethr =  1.29E-07,  avg # of iterations =  2.0

     total cpu time spent up to now is      715.9 secs

     total energy              =   -7571.13038222 Ry
     estimated scf accuracy    <       0.01235523 Ry

     iteration # 85     ecut=    30.00 Ry     beta= 0.70
     Davidson diagonalization with overlap

---- Real-time Memory Report at c_bands before calling an iterative solver
          1242 MiB given to the printing process from OS
             0 MiB allocation reported by mallinfo(arena+hblkhd)
        172910 MiB available memory on the node where the printing process lives
------------------
     ethr =  1.29E-07,  avg # of iterations =  5.0

     total cpu time spent up to now is      719.2 secs

     total energy              =   -7571.13032540 Ry
     estimated scf accuracy    <       0.00741018 Ry

     iteration # 86     ecut=    30.00 Ry     beta= 0.70
     Davidson diagonalization with overlap

---- Real-time Memory Report at c_bands before calling an iterative solver
          1242 MiB given to the printing process from OS
             0 MiB allocation reported by mallinfo(arena+hblkhd)
        172910 MiB available memory on the node where the printing process lives
------------------
     ethr =  1.29E-07,  avg # of iterations =  5.0

     total cpu time spent up to now is      722.6 secs

     total energy              =   -7571.13033133 Ry
     estimated scf accuracy    <       0.01223649 Ry

     iteration # 87     ecut=    30.00 Ry     beta= 0.70
     Davidson diagonalization with overlap

---- Real-time Memory Report at c_bands before calling an iterative solver
          1242 MiB given to the printing process from OS
             0 MiB allocation reported by mallinfo(arena+hblkhd)
        172912 MiB available memory on the node where the printing process lives
------------------
     ethr =  1.29E-07,  avg # of iterations =  6.0

     total cpu time spent up to now is      729.6 secs

     total energy              =   -7571.12942340 Ry
     estimated scf accuracy    <       0.39349389 Ry

     iteration # 88     ecut=    30.00 Ry     beta= 0.70
     Davidson diagonalization with overlap

---- Real-time Memory Report at c_bands before calling an iterative solver
          1242 MiB given to the printing process from OS
             0 MiB allocation reported by mallinfo(arena+hblkhd)
        172911 MiB available memory on the node where the printing process lives
------------------
     ethr =  1.29E-07,  avg # of iterations =  6.0

     total cpu time spent up to now is      741.2 secs

     total energy              =   -7571.12856362 Ry
     estimated scf accuracy    <       0.62105179 Ry

     iteration # 89     ecut=    30.00 Ry     beta= 0.70
     Davidson diagonalization with overlap

---- Real-time Memory Report at c_bands before calling an iterative solver
          1242 MiB given to the printing process from OS
             0 MiB allocation reported by mallinfo(arena+hblkhd)
        172910 MiB available memory on the node where the printing process lives
------------------
     ethr =  1.29E-07,  avg # of iterations =  7.0

     total cpu time spent up to now is      755.4 secs

     total energy              =   -7571.13021964 Ry
     estimated scf accuracy    <       0.00354758 Ry

     iteration # 90     ecut=    30.00 Ry     beta= 0.70
     Davidson diagonalization with overlap

---- Real-time Memory Report at c_bands before calling an iterative solver
          1242 MiB given to the printing process from OS
             0 MiB allocation reported by mallinfo(arena+hblkhd)
        172910 MiB available memory on the node where the printing process lives
------------------
     ethr =  1.29E-07,  avg # of iterations =  5.0

     total cpu time spent up to now is      766.5 secs

     total energy              =   -7571.13031855 Ry
     estimated scf accuracy    <       0.02804977 Ry

     iteration # 91     ecut=    30.00 Ry     beta= 0.70
     Davidson diagonalization with overlap

---- Real-time Memory Report at c_bands before calling an iterative solver
          1242 MiB given to the printing process from OS
             0 MiB allocation reported by mallinfo(arena+hblkhd)
        172911 MiB available memory on the node where the printing process lives
------------------
     ethr =  1.29E-07,  avg # of iterations =  3.0

     total cpu time spent up to now is      778.2 secs

     total energy              =   -7571.13009946 Ry
     estimated scf accuracy    <       0.07068481 Ry

     iteration # 92     ecut=    30.00 Ry     beta= 0.70
     Davidson diagonalization with overlap

---- Real-time Memory Report at c_bands before calling an iterative solver
          1242 MiB given to the printing process from OS
             0 MiB allocation reported by mallinfo(arena+hblkhd)
        172911 MiB available memory on the node where the printing process lives
------------------
     ethr =  1.29E-07,  avg # of iterations =  7.0

     total cpu time spent up to now is      789.7 secs

     total energy              =   -7571.12958374 Ry
     estimated scf accuracy    <       0.01938071 Ry

     iteration # 93     ecut=    30.00 Ry     beta= 0.70
     Davidson diagonalization with overlap

---- Real-time Memory Report at c_bands before calling an iterative solver
          1242 MiB given to the printing process from OS
             0 MiB allocation reported by mallinfo(arena+hblkhd)
        172899 MiB available memory on the node where the printing process lives
------------------
     ethr =  1.29E-07,  avg # of iterations =  8.0

     total cpu time spent up to now is      800.4 secs

     total energy              =   -7571.12827536 Ry
     estimated scf accuracy    <       0.51263296 Ry

     iteration # 94     ecut=    30.00 Ry     beta= 0.70
     Davidson diagonalization with overlap

---- Real-time Memory Report at c_bands before calling an iterative solver
          1242 MiB given to the printing process from OS
             0 MiB allocation reported by mallinfo(arena+hblkhd)
        172902 MiB available memory on the node where the printing process lives
------------------
     ethr =  1.29E-07,  avg # of iterations =  7.0

     total cpu time spent up to now is      813.7 secs

     total energy              =   -7571.12926066 Ry
     estimated scf accuracy    <       0.21072195 Ry

     iteration # 95     ecut=    30.00 Ry     beta= 0.70
     Davidson diagonalization with overlap

---- Real-time Memory Report at c_bands before calling an iterative solver
          1242 MiB given to the printing process from OS
             0 MiB allocation reported by mallinfo(arena+hblkhd)
        172906 MiB available memory on the node where the printing process lives
------------------
     ethr =  1.29E-07,  avg # of iterations =  8.0

     total cpu time spent up to now is      825.7 secs

     total energy              =   -7571.13014245 Ry
     estimated scf accuracy    <       0.00508339 Ry

     iteration # 96     ecut=    30.00 Ry     beta= 0.70
     Davidson diagonalization with overlap

---- Real-time Memory Report at c_bands before calling an iterative solver
          1242 MiB given to the printing process from OS
             0 MiB allocation reported by mallinfo(arena+hblkhd)
        172910 MiB available memory on the node where the printing process lives
------------------
     ethr =  1.29E-07,  avg # of iterations =  7.0

     total cpu time spent up to now is      839.1 secs

     total energy              =   -7571.12819137 Ry
     estimated scf accuracy    <       0.20133418 Ry

     iteration # 97     ecut=    30.00 Ry     beta= 0.70
     Davidson diagonalization with overlap

---- Real-time Memory Report at c_bands before calling an iterative solver
          1242 MiB given to the printing process from OS
             0 MiB allocation reported by mallinfo(arena+hblkhd)
        172909 MiB available memory on the node where the printing process lives
------------------
     ethr =  1.29E-07,  avg # of iterations =  7.0

     total cpu time spent up to now is      852.9 secs

     total energy              =   -7571.12992666 Ry
     estimated scf accuracy    <       0.15964278 Ry

     iteration # 98     ecut=    30.00 Ry     beta= 0.70
     Davidson diagonalization with overlap

---- Real-time Memory Report at c_bands before calling an iterative solver
          1242 MiB given to the printing process from OS
             0 MiB allocation reported by mallinfo(arena+hblkhd)
        172909 MiB available memory on the node where the printing process lives
------------------
     ethr =  1.29E-07,  avg # of iterations =  2.0

     total cpu time spent up to now is      864.5 secs

     total energy              =   -7571.12982884 Ry
     estimated scf accuracy    <       0.18394448 Ry

     iteration # 99     ecut=    30.00 Ry     beta= 0.70
     Davidson diagonalization with overlap

---- Real-time Memory Report at c_bands before calling an iterative solver
          1242 MiB given to the printing process from OS
             0 MiB allocation reported by mallinfo(arena+hblkhd)
        172908 MiB available memory on the node where the printing process lives
------------------
     ethr =  1.29E-07,  avg # of iterations =  7.0

     total cpu time spent up to now is      874.5 secs

     total energy              =   -7571.12968967 Ry
     estimated scf accuracy    <       0.00936726 Ry

     iteration #100     ecut=    30.00 Ry     beta= 0.70
     Davidson diagonalization with overlap

---- Real-time Memory Report at c_bands before calling an iterative solver
          1242 MiB given to the printing process from OS
             0 MiB allocation reported by mallinfo(arena+hblkhd)
        172909 MiB available memory on the node where the printing process lives
------------------
     ethr =  1.29E-07,  avg # of iterations =  8.0

     total cpu time spent up to now is      881.1 secs

     total energy              =   -7571.12831697 Ry
     estimated scf accuracy    <       0.32015890 Ry

     End of self-consistent calculation

     convergence NOT achieved after 100 iterations: stopping

     Writing config to output data dir new_calculations/myprefix.save/
