
     Program PWSCF v.7.0 starts on 20May2023 at  8:50:29 

     This program is part of the open-source Quantum ESPRESSO suite
     for quantum simulation of materials; please cite
         "P. Giannozzi et al., J. Phys.:Condens. Matter 21 395502 (2009);
         "P. Giannozzi et al., J. Phys.:Condens. Matter 29 465901 (2017);
         "P. Giannozzi et al., J. Chem. Phys. 152 154105 (2020);
          URL http://www.quantum-espresso.org", 
     in publications or presentations arising from this work. More details at
     http://www.quantum-espresso.org/quote

     Parallel version (MPI & OpenMP), running on      32 processor cores
     Number of MPI processes:                 1
     Threads/MPI process:                    32

     MPI processes distributed on     1 nodes
     120417 MiB available memory on the printing compute node when the environment starts
 
     Reading input from espresso_6210.pwi
Warning: card &CELL ignored
Warning: card / ignored

     Current dimensions of program PWSCF are:
     Max number of different atomic species (ntypx) = 10
     Max number of k-points (npk) =  40000
     Max angular momentum in pseudopotentials (lmaxx) =  4
     file Al.pbe-n-kjpaw_psl.1.0.0.UPF: wavefunction(s)  3S 3P renormalized

     gamma-point specific algorithms are used
     Message from routine setup:
     using ibrav=0 with symmetry is DISCOURAGED, use correct ibrav instead

     Subspace diagonalization in iterative solution of the eigenvalue problem:
     a serial algorithm will be used

 
     G-vector sticks info
     --------------------
     sticks:   dense  smooth     PW     G-vecs:    dense   smooth      PW
     Sum        2715    1365    337                86873    30681    3833
 
     Using Slab Decomposition
 


     bravais-lattice index     =            0
     lattice parameter (alat)  =      12.1487  a.u.
     unit-cell volume          =    1382.9413 (a.u.)^3
     number of atoms/cell      =           12
     number of atomic types    =            3
     number of electrons       =       112.00
     number of Kohn-Sham states=           67
     kinetic-energy cutoff     =      30.0000  Ry
     charge density cutoff     =     240.0000  Ry
     scf convergence threshold =      1.0E-06
     mixing beta               =       0.7000
     number of iterations used =            8  plain     mixing
     Exchange-correlation=  SLA  PW   PBX  PBC
                           (   1   4   3   4   0   0   0)

     celldm(1)=  12.148710  celldm(2)=   0.000000  celldm(3)=   0.000000
     celldm(4)=   0.000000  celldm(5)=   0.000000  celldm(6)=   0.000000

     crystal axes: (cart. coord. in units of alat)
               a(1) = (   1.000000   0.000000   0.000000 )  
               a(2) = (  -0.259198   0.965824   0.000000 )  
               a(3) = (   0.000000   0.000000   0.798574 )  

     reciprocal axes: (cart. coord. in units 2 pi/alat)
               b(1) = (  1.000000  0.268369  0.000000 )  
               b(2) = (  0.000000  1.035385  0.000000 )  
               b(3) = (  0.000000  0.000000  1.252232 )  


     PseudoPot. # 1 for La read from file:
     /home/pragov/projects/rrg-bengioy-ad/pragov/crystal_structure_design/SSSP/La.GGA-PBE-paw-v1.0.UPF
     MD5 check sum: 436541e95c1ad8901025bd0b0ed42ae2
     Pseudo is Projector augmented-wave + core cor, Zval = 11.0
     Generated using ATOMPAW code
     Shape of augmentation charge: BESSEL
     Using radial grid of 1101 points,  8 beta functions with: 
                l(1) =   0
                l(2) =   0
                l(3) =   1
                l(4) =   1
                l(5) =   2
                l(6) =   2
                l(7) =   3
                l(8) =   3
     Q(r) pseudized with 0 coefficients 


     PseudoPot. # 2 for Al read from file:
     /home/pragov/projects/rrg-bengioy-ad/pragov/crystal_structure_design/SSSP/Al.pbe-n-kjpaw_psl.1.0.0.UPF
     MD5 check sum: cfc449ca30b5f3223ec38ddd88ac046d
     Pseudo is Projector augmented-wave + core cor, Zval =  3.0
     Generated using "atomic" code by A. Dal Corso  v.5.1
     Shape of augmentation charge: PSQ
     Using radial grid of 1135 points,  6 beta functions with: 
                l(1) =   0
                l(2) =   0
                l(3) =   1
                l(4) =   1
                l(5) =   2
                l(6) =   2
     Q(r) pseudized with 0 coefficients 


     PseudoPot. # 3 for Ni read from file:
     /home/pragov/projects/rrg-bengioy-ad/pragov/crystal_structure_design/SSSP/ni_pbe_v1.4.uspp.F.UPF
     MD5 check sum: 1ee80287db30b12d2bc1f57a5b5d6409
     Pseudo is Ultrasoft + core correction, Zval = 18.0
     Generated by new atomic code, or converted to UPF format
     Using radial grid of  865 points,  6 beta functions with: 
                l(1) =   0
                l(2) =   0
                l(3) =   1
                l(4) =   1
                l(5) =   2
                l(6) =   2
     Q(r) pseudized with 10 coefficients,  rinner =    0.980   0.980   0.980
                                                       0.980   0.980

     atomic species   valence    mass     pseudopotential
        La            11.00   138.90547     La( 1.00)
        Al             3.00    26.98154     Al( 1.00)
        Ni            18.00    58.69340     Ni( 1.00)

      4 Sym. Ops., with inversion, found ( 2 have fractional translation)


                                    s                        frac. trans.

      isym =  1     identity                                     

 cryst.   s( 1) = (     1          0          0      )
                  (     0          1          0      )
                  (     0          0          1      )

 cart.    s( 1) = (  1.0000000 -0.0000000  0.0000000 )
                  (  0.0000000  1.0000000  0.0000000 )
                  (  0.0000000  0.0000000  1.0000000 )


      isym =  2     180 deg rotation - cart. axis [0,0,1]        

 cryst.   s( 2) = (    -1          0          0      )    f =( -0.0000000 )
                  (     0         -1          0      )       ( -0.0000000 )
                  (     0          0          1      )       (  0.5000000 )

 cart.    s( 2) = ( -1.0000000  0.0000000  0.0000000 )    f =( -0.0000000 )
                  (  0.0000000 -1.0000000  0.0000000 )       ( -0.0000000 )
                  (  0.0000000  0.0000000  1.0000000 )       (  0.3992870 )


      isym =  3     inversion                                    

 cryst.   s( 3) = (    -1          0          0      )
                  (     0         -1          0      )
                  (     0          0         -1      )

 cart.    s( 3) = ( -1.0000000  0.0000000  0.0000000 )
                  (  0.0000000 -1.0000000  0.0000000 )
                  (  0.0000000  0.0000000 -1.0000000 )


      isym =  4     inv. 180 deg rotation - cart. axis [0,0,1]   

 cryst.   s( 4) = (     1          0          0      )    f =(  0.0000000 )
                  (     0          1          0      )       (  0.0000000 )
                  (     0          0         -1      )       ( -0.5000000 )

 cart.    s( 4) = (  1.0000000 -0.0000000  0.0000000 )    f =(  0.0000000 )
                  (  0.0000000  1.0000000  0.0000000 )       (  0.0000000 )
                  (  0.0000000  0.0000000 -1.0000000 )       ( -0.3992870 )


   Cartesian axes

     site n.     atom                  positions (alat units)
         1           La  tau(   1) = (   0.4840543   0.6310879   0.1996435  )
         2           La  tau(   2) = (   0.2567480   0.3347363   0.5989305  )
         3           Al  tau(   3) = (   0.0446259   0.0581813   0.1996435  )
         4           Al  tau(   4) = (   0.6961764   0.9076430   0.5989305  )
         5           Al  tau(   5) = (  -0.0414761   0.4590988   0.1996435  )
         6           Al  tau(   6) = (   0.7822784   0.5067255   0.5989305  )
         7           Al  tau(   7) = (   0.4541593   0.0789388   0.1996435  )
         8           Al  tau(   8) = (   0.2866431   0.8868855   0.5989305  )
         9           Ni  tau(   9) = (   0.7475246   0.1936526   0.0000000  )
        10           Ni  tau(  10) = (  -0.0067223   0.7721717   0.0000000  )
        11           Ni  tau(  11) = (  -0.0067223   0.7721717   0.3992870  )
        12           Ni  tau(  12) = (   0.7475246   0.1936526   0.3992870  )

   Crystallographic axes

     site n.     atom                  positions (cryst. coord.)
         1           La  tau(   1) = (  0.6534190  0.6534190  0.2500000  )
         2           La  tau(   2) = (  0.3465810  0.3465810  0.7500000  )
         3           Al  tau(   3) = (  0.0602400  0.0602400  0.2500000  )
         4           Al  tau(   4) = (  0.9397600  0.9397600  0.7500000  )
         5           Al  tau(   5) = (  0.0817320  0.4753440  0.2500000  )
         6           Al  tau(   6) = (  0.9182680  0.5246560  0.7500000  )
         7           Al  tau(   7) = (  0.4753440  0.0817320  0.2500000  )
         8           Al  tau(   8) = (  0.5246560  0.9182680  0.7500000  )
         9           Ni  tau(   9) = (  0.7994950  0.2005050  0.0000000  )
        10           Ni  tau(  10) = (  0.2005050  0.7994950  0.0000000  )
        11           Ni  tau(  11) = (  0.2005050  0.7994950  0.5000000  )
        12           Ni  tau(  12) = (  0.7994950  0.2005050  0.5000000  )

     number of k points=     1  Methfessel-Paxton smearing, width (Ry)=  0.0010
                       cart. coord. in units 2pi/alat
        k(    1) = (   0.0000000   0.0000000   0.0000000), wk =   2.0000000

                       cryst. coord.
        k(    1) = (   0.0000000   0.0000000   0.0000000), wk =   2.0000000

     Dense  grid:    43437 G-vectors     FFT dimensions: (  60,  60,  48)

     Smooth grid:    15341 G-vectors     FFT dimensions: (  45,  45,  36)

     Dynamical RAM for                 wfc:       1.96 MB

     Dynamical RAM for     wfc (w. buffer):       1.96 MB

     Dynamical RAM for           str. fact:       1.99 MB

     Dynamical RAM for           local pot:       0.00 MB

     Dynamical RAM for          nlocal pot:       7.14 MB

     Dynamical RAM for                qrad:       8.96 MB

     Dynamical RAM for          rho,v,vnew:       5.94 MB

     Dynamical RAM for               rhoin:       1.98 MB

     Dynamical RAM for            rho*nmix:      10.60 MB

     Dynamical RAM for           G-vectors:       2.60 MB

     Dynamical RAM for          h,s,v(r/c):       0.41 MB

     Dynamical RAM for          <psi|beta>:       0.12 MB

     Dynamical RAM for                 psi:       3.92 MB

     Dynamical RAM for                hpsi:       3.92 MB

     Dynamical RAM for                spsi:       3.92 MB

     Dynamical RAM for      wfcinit/wfcrot:       8.65 MB

     Dynamical RAM for           addusdens:     371.83 MB

     Dynamical RAM for          addusforce:     378.86 MB

     Dynamical RAM for         addusstress:     385.75 MB

     Estimated static dynamical RAM per process >      39.82 MB

     Estimated max dynamical RAM per process >     436.17 MB

     Check: negative core charge=   -0.000003

     Initial potential from superposition of free atoms

     starting charge     103.9692, renormalised to     112.0000
     Starting wfcs are  140 randomized atomic wfcs
     Checking if some PAW data can be deallocated... 

     total cpu time spent up to now is       18.2 secs

     Self-consistent Calculation

     iteration #  1     ecut=    30.00 Ry     beta= 0.70
     Davidson diagonalization with overlap

---- Real-time Memory Report at c_bands before calling an iterative solver
           693 MiB given to the printing process from OS
             0 MiB allocation reported by mallinfo(arena+hblkhd)
        120118 MiB available memory on the node where the printing process lives
------------------
     ethr =  1.00E-02,  avg # of iterations =  4.0

     total cpu time spent up to now is       24.6 secs

     total energy              =   -2369.18436621 Ry
     estimated scf accuracy    <     213.05041188 Ry

     iteration #  2     ecut=    30.00 Ry     beta= 0.70
     Davidson diagonalization with overlap

---- Real-time Memory Report at c_bands before calling an iterative solver
           859 MiB given to the printing process from OS
             0 MiB allocation reported by mallinfo(arena+hblkhd)
        120112 MiB available memory on the node where the printing process lives
------------------
     ethr =  1.00E-02,  avg # of iterations =  8.0

     total cpu time spent up to now is       31.8 secs

     total energy              =   -2491.37486197 Ry
     estimated scf accuracy    <     621.57442794 Ry

     iteration #  3     ecut=    30.00 Ry     beta= 0.70
     Davidson diagonalization with overlap

---- Real-time Memory Report at c_bands before calling an iterative solver
           862 MiB given to the printing process from OS
             0 MiB allocation reported by mallinfo(arena+hblkhd)
        120121 MiB available memory on the node where the printing process lives
------------------
     ethr =  1.00E-02,  avg # of iterations =  9.0

     total cpu time spent up to now is       39.8 secs

     total energy              =   -2527.03431832 Ry
     estimated scf accuracy    <     115.96994599 Ry

     iteration #  4     ecut=    30.00 Ry     beta= 0.70
     Davidson diagonalization with overlap

---- Real-time Memory Report at c_bands before calling an iterative solver
           866 MiB given to the printing process from OS
             0 MiB allocation reported by mallinfo(arena+hblkhd)
        120100 MiB available memory on the node where the printing process lives
------------------
     ethr =  1.00E-02,  avg # of iterations =  7.0

     total cpu time spent up to now is       45.6 secs

     total energy              =   -2529.09665239 Ry
     estimated scf accuracy    <      62.24292182 Ry

     iteration #  5     ecut=    30.00 Ry     beta= 0.70
     Davidson diagonalization with overlap

---- Real-time Memory Report at c_bands before calling an iterative solver
           866 MiB given to the printing process from OS
             0 MiB allocation reported by mallinfo(arena+hblkhd)
        120103 MiB available memory on the node where the printing process lives
------------------
     ethr =  1.00E-02,  avg # of iterations =  2.0

     total cpu time spent up to now is       47.7 secs

     total energy              =   -2527.94404109 Ry
     estimated scf accuracy    <      23.29902548 Ry

     iteration #  6     ecut=    30.00 Ry     beta= 0.70
     Davidson diagonalization with overlap

---- Real-time Memory Report at c_bands before calling an iterative solver
           866 MiB given to the printing process from OS
             0 MiB allocation reported by mallinfo(arena+hblkhd)
        120102 MiB available memory on the node where the printing process lives
------------------
     ethr =  1.00E-02,  avg # of iterations =  2.0

     total cpu time spent up to now is       49.7 secs

     total energy              =   -2528.03908732 Ry
     estimated scf accuracy    <      10.76346792 Ry

     iteration #  7     ecut=    30.00 Ry     beta= 0.70
     Davidson diagonalization with overlap

---- Real-time Memory Report at c_bands before calling an iterative solver
           866 MiB given to the printing process from OS
             0 MiB allocation reported by mallinfo(arena+hblkhd)
        120105 MiB available memory on the node where the printing process lives
------------------
     ethr =  9.61E-03,  avg # of iterations =  1.0

     total cpu time spent up to now is       51.7 secs

     total energy              =   -2526.75334173 Ry
     estimated scf accuracy    <       8.91917195 Ry

     iteration #  8     ecut=    30.00 Ry     beta= 0.70
     Davidson diagonalization with overlap

---- Real-time Memory Report at c_bands before calling an iterative solver
           866 MiB given to the printing process from OS
             0 MiB allocation reported by mallinfo(arena+hblkhd)
        120107 MiB available memory on the node where the printing process lives
------------------
     ethr =  7.96E-03,  avg # of iterations =  1.0

     total cpu time spent up to now is       53.7 secs

     total energy              =   -2526.61183108 Ry
     estimated scf accuracy    <       3.21707007 Ry

     iteration #  9     ecut=    30.00 Ry     beta= 0.70
     Davidson diagonalization with overlap

---- Real-time Memory Report at c_bands before calling an iterative solver
           866 MiB given to the printing process from OS
             0 MiB allocation reported by mallinfo(arena+hblkhd)
        120107 MiB available memory on the node where the printing process lives
------------------
     ethr =  2.87E-03,  avg # of iterations =  2.0

     total cpu time spent up to now is       55.8 secs

     total energy              =   -2526.67937182 Ry
     estimated scf accuracy    <       1.16866422 Ry

     iteration # 10     ecut=    30.00 Ry     beta= 0.70
     Davidson diagonalization with overlap

---- Real-time Memory Report at c_bands before calling an iterative solver
           866 MiB given to the printing process from OS
             0 MiB allocation reported by mallinfo(arena+hblkhd)
        120105 MiB available memory on the node where the printing process lives
------------------
     ethr =  1.04E-03,  avg # of iterations =  2.0

     total cpu time spent up to now is       59.3 secs

     total energy              =   -2526.45363458 Ry
     estimated scf accuracy    <       0.90034453 Ry

     iteration # 11     ecut=    30.00 Ry     beta= 0.70
     Davidson diagonalization with overlap

---- Real-time Memory Report at c_bands before calling an iterative solver
           867 MiB given to the printing process from OS
             0 MiB allocation reported by mallinfo(arena+hblkhd)
        120106 MiB available memory on the node where the printing process lives
------------------
     ethr =  8.04E-04,  avg # of iterations = 10.0

     total cpu time spent up to now is       61.5 secs

     total energy              =   -2526.50407146 Ry
     estimated scf accuracy    <       0.76768502 Ry

     iteration # 12     ecut=    30.00 Ry     beta= 0.70
     Davidson diagonalization with overlap

---- Real-time Memory Report at c_bands before calling an iterative solver
           867 MiB given to the printing process from OS
             0 MiB allocation reported by mallinfo(arena+hblkhd)
        120107 MiB available memory on the node where the printing process lives
------------------
     ethr =  6.85E-04,  avg # of iterations =  1.0

     total cpu time spent up to now is       63.6 secs

     total energy              =   -2526.46709933 Ry
     estimated scf accuracy    <       0.32142526 Ry

     iteration # 13     ecut=    30.00 Ry     beta= 0.70
     Davidson diagonalization with overlap

---- Real-time Memory Report at c_bands before calling an iterative solver
           867 MiB given to the printing process from OS
             0 MiB allocation reported by mallinfo(arena+hblkhd)
        120114 MiB available memory on the node where the printing process lives
------------------
     ethr =  2.87E-04,  avg # of iterations = 12.0

     total cpu time spent up to now is       66.1 secs

     total energy              =   -2526.51269595 Ry
     estimated scf accuracy    <       2.97010609 Ry

     iteration # 14     ecut=    30.00 Ry     beta= 0.70
     Davidson diagonalization with overlap

---- Real-time Memory Report at c_bands before calling an iterative solver
           867 MiB given to the printing process from OS
             0 MiB allocation reported by mallinfo(arena+hblkhd)
        120114 MiB available memory on the node where the printing process lives
------------------
     ethr =  2.87E-04,  avg # of iterations =  2.0

     total cpu time spent up to now is       72.0 secs

     total energy              =   -2526.36547843 Ry
     estimated scf accuracy    <       1.29258584 Ry

     iteration # 15     ecut=    30.00 Ry     beta= 0.70
     Davidson diagonalization with overlap

---- Real-time Memory Report at c_bands before calling an iterative solver
           867 MiB given to the printing process from OS
             0 MiB allocation reported by mallinfo(arena+hblkhd)
        120128 MiB available memory on the node where the printing process lives
------------------
     ethr =  2.87E-04,  avg # of iterations =  8.0

     total cpu time spent up to now is       75.9 secs

     total energy              =   -2526.46818765 Ry
     estimated scf accuracy    <       0.26234892 Ry

     iteration # 16     ecut=    30.00 Ry     beta= 0.70
     Davidson diagonalization with overlap

---- Real-time Memory Report at c_bands before calling an iterative solver
           867 MiB given to the printing process from OS
             0 MiB allocation reported by mallinfo(arena+hblkhd)
        120117 MiB available memory on the node where the printing process lives
------------------
     ethr =  2.34E-04,  avg # of iterations =  2.0

     total cpu time spent up to now is       77.9 secs

     total energy              =   -2526.48001897 Ry
     estimated scf accuracy    <       0.07297637 Ry

     iteration # 17     ecut=    30.00 Ry     beta= 0.70
     Davidson diagonalization with overlap

---- Real-time Memory Report at c_bands before calling an iterative solver
           867 MiB given to the printing process from OS
             0 MiB allocation reported by mallinfo(arena+hblkhd)
        120116 MiB available memory on the node where the printing process lives
------------------
     ethr =  6.52E-05,  avg # of iterations =  2.0

     total cpu time spent up to now is       79.9 secs

     total energy              =   -2526.48364963 Ry
     estimated scf accuracy    <       0.01554975 Ry

     iteration # 18     ecut=    30.00 Ry     beta= 0.70
     Davidson diagonalization with overlap

---- Real-time Memory Report at c_bands before calling an iterative solver
           867 MiB given to the printing process from OS
             0 MiB allocation reported by mallinfo(arena+hblkhd)
        120118 MiB available memory on the node where the printing process lives
------------------
     ethr =  1.39E-05,  avg # of iterations = 19.0

     total cpu time spent up to now is       82.5 secs

     total energy              =   -2526.48645631 Ry
     estimated scf accuracy    <       0.00479610 Ry

     iteration # 19     ecut=    30.00 Ry     beta= 0.70
     Davidson diagonalization with overlap

---- Real-time Memory Report at c_bands before calling an iterative solver
           867 MiB given to the printing process from OS
             0 MiB allocation reported by mallinfo(arena+hblkhd)
        120124 MiB available memory on the node where the printing process lives
------------------
     ethr =  4.28E-06,  avg # of iterations =  2.0

     total cpu time spent up to now is       84.5 secs

     total energy              =   -2526.48683789 Ry
     estimated scf accuracy    <       0.00022106 Ry

     iteration # 20     ecut=    30.00 Ry     beta= 0.70
     Davidson diagonalization with overlap

---- Real-time Memory Report at c_bands before calling an iterative solver
           867 MiB given to the printing process from OS
             0 MiB allocation reported by mallinfo(arena+hblkhd)
        120125 MiB available memory on the node where the printing process lives
------------------
     ethr =  1.97E-07,  avg # of iterations =  5.0

     total cpu time spent up to now is       86.7 secs

     total energy              =   -2526.48691207 Ry
     estimated scf accuracy    <       0.00027260 Ry

     iteration # 21     ecut=    30.00 Ry     beta= 0.70
     Davidson diagonalization with overlap

---- Real-time Memory Report at c_bands before calling an iterative solver
           867 MiB given to the printing process from OS
             0 MiB allocation reported by mallinfo(arena+hblkhd)
        120126 MiB available memory on the node where the printing process lives
------------------
     ethr =  1.97E-07,  avg # of iterations =  2.0

     total cpu time spent up to now is       88.7 secs

     total energy              =   -2526.48690756 Ry
     estimated scf accuracy    <       0.00030521 Ry

     iteration # 22     ecut=    30.00 Ry     beta= 0.70
     Davidson diagonalization with overlap

---- Real-time Memory Report at c_bands before calling an iterative solver
           867 MiB given to the printing process from OS
             0 MiB allocation reported by mallinfo(arena+hblkhd)
        120125 MiB available memory on the node where the printing process lives
------------------
     ethr =  1.97E-07,  avg # of iterations =  2.0

     total cpu time spent up to now is       90.7 secs

     total energy              =   -2526.48692638 Ry
     estimated scf accuracy    <       0.00004954 Ry

     iteration # 23     ecut=    30.00 Ry     beta= 0.70
     Davidson diagonalization with overlap

---- Real-time Memory Report at c_bands before calling an iterative solver
           867 MiB given to the printing process from OS
             0 MiB allocation reported by mallinfo(arena+hblkhd)
        120104 MiB available memory on the node where the printing process lives
------------------
     ethr =  4.42E-08,  avg # of iterations =  2.0

     total cpu time spent up to now is       92.8 secs

     total energy              =   -2526.48693113 Ry
     estimated scf accuracy    <       0.00001048 Ry

     iteration # 24     ecut=    30.00 Ry     beta= 0.70
     Davidson diagonalization with overlap

---- Real-time Memory Report at c_bands before calling an iterative solver
           867 MiB given to the printing process from OS
             0 MiB allocation reported by mallinfo(arena+hblkhd)
        120106 MiB available memory on the node where the printing process lives
------------------
     ethr =  9.36E-09,  avg # of iterations =  5.0

     total cpu time spent up to now is       94.9 secs

     total energy              =   -2526.48693249 Ry
     estimated scf accuracy    <       0.00000320 Ry

     iteration # 25     ecut=    30.00 Ry     beta= 0.70
     Davidson diagonalization with overlap

---- Real-time Memory Report at c_bands before calling an iterative solver
           867 MiB given to the printing process from OS
             0 MiB allocation reported by mallinfo(arena+hblkhd)
        120107 MiB available memory on the node where the printing process lives
------------------
     ethr =  2.86E-09,  avg # of iterations =  2.0

     total cpu time spent up to now is       97.1 secs

     total energy              =   -2526.48693288 Ry
     estimated scf accuracy    <       0.00000440 Ry

     iteration # 26     ecut=    30.00 Ry     beta= 0.70
     Davidson diagonalization with overlap

---- Real-time Memory Report at c_bands before calling an iterative solver
           867 MiB given to the printing process from OS
             0 MiB allocation reported by mallinfo(arena+hblkhd)
        120108 MiB available memory on the node where the printing process lives
------------------
     ethr =  2.86E-09,  avg # of iterations =  2.0

     total cpu time spent up to now is      102.0 secs

     End of self-consistent calculation

          k = 0.0000 0.0000 0.0000 (  1917 PWs)   bands (ev):

   -92.4304 -92.4280 -92.4213 -92.4172 -52.9196 -52.9182 -52.8608 -52.8537
   -52.7794 -52.7761 -52.7410 -52.7305 -52.5922 -52.5788 -52.5774 -52.5641
   -21.3268 -21.1936  -5.3158  -5.2749  -5.1353  -4.9865  -4.7900  -4.7276
     2.1680   5.2426   5.4670   5.6975   5.8400   7.1136   7.1850   7.9306
     7.9920   8.1290   8.3349   8.6015   8.6497   8.7313   8.9210   8.9576
     8.9882   9.2452   9.2896   9.4075   9.4746   9.6917   9.6947   9.7812
     9.8188   9.8647   9.8717   9.9661  10.0850  10.3352  10.4267  10.6327
    11.2297  11.6235  12.6854  12.7583  12.8366  12.8699  12.8817  12.9141
    12.9797  13.2516  13.3783

     occupation numbers 
     1.0000   1.0000   1.0000   1.0000   1.0000   1.0000   1.0000   1.0000
     1.0000   1.0000   1.0000   1.0000   1.0000   1.0000   1.0000   1.0000
     1.0000   1.0000   1.0000   1.0000   1.0000   1.0000   1.0000   1.0000
     1.0000   1.0000   1.0000   1.0000   1.0000   1.0000   1.0000   1.0000
     1.0000   1.0000   1.0000   1.0000   1.0000   1.0000   1.0000   1.0000
     1.0000   1.0000   1.0000   1.0000   1.0000   1.0000   1.0000   1.0000
     1.0000   1.0000   1.0000   1.0000   1.0000   1.0000   1.0000   1.0000
    -0.0000  -0.0000  -0.0000  -0.0000  -0.0000  -0.0000  -0.0000  -0.0000
    -0.0000  -0.0000  -0.0000

     the Fermi energy is    11.0281 ev

!    total energy              =   -2526.48693305 Ry
     estimated scf accuracy    <       0.00000023 Ry
     smearing contrib. (-TS)   =       0.00000000 Ry
     internal energy E=F+TS    =   -2526.48693305 Ry

     The total energy is F=E-TS. E is the sum of the following terms:
     one-electron contribution =   -1315.47387673 Ry
     hartree contribution      =     709.87457922 Ry
     xc contribution           =    -175.34663490 Ry
     ewald contribution        =    -741.26016163 Ry
     one-center paw contrib.   =   -1004.28083900 Ry
      -> PAW hartree energy AE =      79.83172696 Ry
      -> PAW hartree energy PS =     -79.87431381 Ry
      -> PAW xc energy AE      =   -1030.88051244 Ry
      -> PAW xc energy PS      =      26.64226028 Ry
      -> total E_H with PAW    =     709.83199237 Ry
      -> total E_XC with PAW   =   -1179.58488706 Ry

     convergence has been achieved in  26 iterations

     Forces acting on atoms (cartesian axes, Ry/au):

     atom    1 type  1   force =     0.01703023    0.02222455    0.00000000
     atom    2 type  1   force =    -0.01703023   -0.02222455    0.00000000
     atom    3 type  2   force =     0.00330184    0.00430781    0.00000000
     atom    4 type  2   force =    -0.00330184   -0.00430781    0.00000000
     atom    5 type  2   force =     0.00336891   -0.01768928    0.00000000
     atom    6 type  2   force =    -0.00336891    0.01768928   -0.00000000
     atom    7 type  2   force =    -0.01795761   -0.00133054    0.00000000
     atom    8 type  2   force =     0.01795761    0.00133054    0.00000000
     atom    9 type  3   force =    -0.00137665    0.00107627    0.00002293
     atom   10 type  3   force =     0.00137665   -0.00107627   -0.00002293
     atom   11 type  3   force =     0.00137665   -0.00107627    0.00002293
     atom   12 type  3   force =    -0.00137665    0.00107627   -0.00002293
     The non-local contrib.  to forces
     atom    1 type  1   force =    -0.04520565   -0.05893253    0.00000000
     atom    2 type  1   force =     0.04520565    0.05893253    0.00000000
     atom    3 type  2   force =     0.00730690    0.00953176   -0.00000000
     atom    4 type  2   force =    -0.00730690   -0.00953176    0.00000000
     atom    5 type  2   force =    -0.00147515   -0.03600163    0.00000000
     atom    6 type  2   force =     0.00147515    0.03600163    0.00000000
     atom    7 type  2   force =    -0.03438598   -0.01075092    0.00000000
     atom    8 type  2   force =     0.03438598    0.01075092    0.00000000
     atom    9 type  3   force =    -0.06521875    0.05005061    0.00000774
     atom   10 type  3   force =     0.06521875   -0.05005061   -0.00000774
     atom   11 type  3   force =     0.06521875   -0.05005061    0.00000774
     atom   12 type  3   force =    -0.06521875    0.05005061   -0.00000774
     The ionic contribution  to forces
     atom    1 type  1   force =    -2.77640789   -3.61975405    0.00000000
     atom    2 type  1   force =     2.77640789    3.61975405   -0.00000000
     atom    3 type  2   force =     1.48673659    1.93833939    0.00000000
     atom    4 type  2   force =    -1.48673659   -1.93833939   -0.00000000
     atom    5 type  2   force =     2.59879049   -1.61608689    0.00000000
     atom    6 type  2   force =    -2.59879049    1.61608689   -0.00000000
     atom    7 type  2   force =    -2.23445645    2.09108900   -0.00000000
     atom    8 type  2   force =     2.23445645   -2.09108900   -0.00000000
     atom    9 type  3   force =    -2.65952109    2.03989422   -0.00000000
     atom   10 type  3   force =     2.65952109   -2.03989421   -0.00000000
     atom   11 type  3   force =     2.65952109   -2.03989421    0.00000000
     atom   12 type  3   force =    -2.65952109    2.03989422    0.00000000
     The local contribution  to forces
     atom    1 type  1   force =     2.83886361    3.70095232    0.00007459
     atom    2 type  1   force =    -2.83874444   -3.70140465   -0.00007056
     atom    3 type  2   force =    -1.48968288   -1.94221021    0.00006297
     atom    4 type  2   force =     1.48977461    1.94228312   -0.00006055
     atom    5 type  2   force =    -2.59322805    1.62997197    0.00004276
     atom    6 type  2   force =     2.59323198   -1.63004988   -0.00004170
     atom    7 type  2   force =     2.24642691   -2.08207037    0.00004316
     atom    8 type  2   force =    -2.24649625    2.08217562   -0.00004652
     atom    9 type  3   force =     2.72184319   -2.08760790   -0.00003261
     atom   10 type  3   force =    -2.72199041    2.08805121   -0.00000053
     atom   11 type  3   force =    -2.72214164    2.08815395   -0.00004529
     atom   12 type  3   force =     2.72185562   -2.08763059    0.00000359
     The core correction contribution to forces
     atom    1 type  1   force =     0.00000831    0.00001077    0.00000001
     atom    2 type  1   force =    -0.00000826   -0.00001090    0.00000000
     atom    3 type  2   force =    -0.00103300   -0.00134803    0.00000009
     atom    4 type  2   force =     0.00103479    0.00134857    0.00000035
     atom    5 type  2   force =    -0.00074568    0.00437819   -0.00000126
     atom    6 type  2   force =     0.00074529   -0.00437921    0.00000066
     atom    7 type  2   force =     0.00442160    0.00041526   -0.00000056
     atom    8 type  2   force =    -0.00442242   -0.00041356    0.00000097
     atom    9 type  3   force =     0.00181792   -0.00139450    0.00000002
     atom   10 type  3   force =    -0.00181886    0.00139496   -0.00000045
     atom   11 type  3   force =    -0.00181771    0.00139407   -0.00000054
     atom   12 type  3   force =     0.00181813   -0.00139448   -0.00000041
     The Hubbard contrib.    to forces
     atom    1 type  1   force =     0.00000000    0.00000000    0.00000000
     atom    2 type  1   force =     0.00000000    0.00000000    0.00000000
     atom    3 type  2   force =     0.00000000    0.00000000    0.00000000
     atom    4 type  2   force =     0.00000000    0.00000000    0.00000000
     atom    5 type  2   force =     0.00000000    0.00000000    0.00000000
     atom    6 type  2   force =     0.00000000    0.00000000    0.00000000
     atom    7 type  2   force =     0.00000000    0.00000000    0.00000000
     atom    8 type  2   force =     0.00000000    0.00000000    0.00000000
     atom    9 type  3   force =     0.00000000    0.00000000    0.00000000
     atom   10 type  3   force =     0.00000000    0.00000000    0.00000000
     atom   11 type  3   force =     0.00000000    0.00000000    0.00000000
     atom   12 type  3   force =     0.00000000    0.00000000    0.00000000
     The SCF correction term to forces
     atom    1 type  1   force =    -0.00019271   -0.00013761   -0.00006921
     atom    2 type  1   force =     0.00014436    0.00041878    0.00007555
     atom    3 type  2   force =    -0.00000993    0.00000195   -0.00005747
     atom    4 type  2   force =    -0.00005191   -0.00006130    0.00005892
     atom    5 type  2   force =     0.00002059    0.00003593   -0.00005002
     atom    6 type  2   force =    -0.00003757    0.00001670    0.00004403
     atom    7 type  2   force =     0.00003026    0.00000838   -0.00004397
     atom    8 type  2   force =     0.00002781   -0.00007156    0.00005085
     atom    9 type  3   force =    -0.00031008    0.00011699    0.00002957
     atom   10 type  3   force =     0.00039228   -0.00056725   -0.00002277
     atom   11 type  3   force =     0.00060880   -0.00068150    0.00009503
     atom   12 type  3   force =    -0.00033955    0.00018169    0.00000598

     Total force =     0.054185     Total SCF correction =     0.001369


     Computing stress (Cartesian axis) and pressure

          total   stress  (Ry/bohr**3)                   (kbar)     P=     -461.48
  -0.00352824   0.00022731   0.00000000         -519.02       33.44        0.00
   0.00022731  -0.00340624   0.00000000           33.44     -501.08        0.00
   0.00000000   0.00000000  -0.00247677            0.00        0.00     -364.34

     kinetic stress (kbar)  16798.04    -18.74      0.00
                              -18.74  16787.99      0.00
                                0.00      0.00  16650.55

     local   stress (kbar)  -2395.41  -3903.98      0.01
                            -3903.98  -4490.80     -0.01
                                0.01     -0.01 -49989.02

     nonloc. stress (kbar)   8617.61    -38.90      0.00
                              -38.90   8596.72      0.00
                                0.00      0.00   8618.19

     hartree stress (kbar)  17310.99   1758.50     -0.00
                             1758.50  18254.83      0.01
                               -0.00      0.01  39944.36

     exc-cor stress (kbar)  -4341.60      0.91     -0.00
                                0.91  -4341.11      0.00
                               -0.00      0.00  -4343.85

     corecor stress (kbar)  -1404.47     -0.39      0.00
                               -0.39  -1404.67     -0.00
                                0.00     -0.00  -1404.09

     ewald   stress (kbar) -35104.19   2236.02     -0.00
                             2236.02 -33904.04     -0.00
                               -0.00     -0.00  -9840.48

     hubbard stress (kbar)      0.00      0.00      0.00
                                0.00      0.00      0.00
                                0.00      0.00      0.00

     DFT-D   stress (kbar)      0.00      0.00      0.00
                                0.00      0.00      0.00
                                0.00      0.00      0.00

     XDM     stress (kbar)      0.00      0.00      0.00
                                0.00      0.00      0.00
                                0.00      0.00      0.00

     dft-nl  stress (kbar)      0.00      0.00      0.00
                                0.00      0.00      0.00
                                0.00      0.00      0.00

     TS-vdW  stress (kbar)      0.00      0.00      0.00
                                0.00      0.00      0.00
                                0.00      0.00      0.00


                                0.00      0.00      0.00
                                0.00      0.00      0.00


                                0.00      0.00      0.00


     Writing all to output data dir new_calculations/myprefix.save/
 
     init_run     :    380.34s CPU     17.73s WALL (       1 calls)
     electrons    :   2432.19s CPU     84.00s WALL (       1 calls)
     forces       :     14.04s CPU      0.49s WALL (       1 calls)
     stress       :     45.01s CPU      1.53s WALL (       1 calls)

     Called by init_run:
     wfcinit      :    143.77s CPU      5.89s WALL (       1 calls)
     wfcinit:atom :      0.07s CPU      0.00s WALL (       1 calls)
     wfcinit:wfcr :    142.65s CPU      5.84s WALL (       1 calls)
     potinit      :    115.56s CPU      4.72s WALL (       1 calls)
     hinit0       :     94.06s CPU      5.79s WALL (       1 calls)

     Called by electrons:
     c_bands      :   1202.23s CPU     39.74s WALL (      26 calls)
     sum_band     :    315.73s CPU     13.50s WALL (      26 calls)
     v_of_rho     :     20.28s CPU      0.68s WALL (      27 calls)
     v_h          :      1.66s CPU      0.06s WALL (      27 calls)
     v_xc         :     19.86s CPU      0.67s WALL (      29 calls)
     newd         :    206.09s CPU      7.13s WALL (      27 calls)
     PAW_pot      :    710.28s CPU     24.02s WALL (      27 calls)
     mix_rho      :      6.29s CPU      0.21s WALL (      26 calls)

     Called by c_bands:
     init_us_2    :      0.88s CPU      0.03s WALL (      53 calls)
     init_us_2:cp :      0.81s CPU      0.03s WALL (      53 calls)
     regterg      :   1195.53s CPU     39.51s WALL (      26 calls)

     Called by sum_band:
     sum_band:wei :      0.04s CPU      0.00s WALL (      26 calls)
     sum_band:loo :    149.85s CPU      4.89s WALL (      26 calls)
     sum_band:buf :      0.02s CPU      0.00s WALL (      26 calls)
     sum_band:ini :      0.45s CPU      0.02s WALL (      26 calls)
     sum_band:cal :      1.65s CPU      0.06s WALL (      26 calls)
     sum_band:bec :      0.23s CPU      0.01s WALL (      26 calls)
     addusdens    :    162.67s CPU      8.51s WALL (      26 calls)
     addusd:skk   :      0.43s CPU      0.01s WALL (      78 calls)
     addusd:dgemm :     13.12s CPU      3.54s WALL (      78 calls)
     addusd:qvan2 :    144.61s CPU      4.73s WALL (      78 calls)

     Called by *egterg:
     rdiaghg      :     22.11s CPU      0.74s WALL (     142 calls)
     regterg:over :     11.47s CPU      0.39s WALL (     116 calls)
     regterg:upda :      1.50s CPU      0.05s WALL (     116 calls)
     regterg:last :      3.82s CPU      0.13s WALL (      60 calls)
     h_psi        :   1287.31s CPU     43.62s WALL (     143 calls)
     s_psi        :      1.00s CPU      0.03s WALL (     143 calls)
     g_psi        :      0.20s CPU      0.01s WALL (     116 calls)

     Called by h_psi:
     h_psi:calbec :      9.22s CPU      0.31s WALL (     143 calls)
     vloc_psi     :   1275.92s CPU     43.23s WALL (     143 calls)
     add_vuspsi   :      1.14s CPU      0.04s WALL (     143 calls)

     General routines
     calbec       :     10.67s CPU      0.36s WALL (     174 calls)
     fft          :     80.72s CPU      3.75s WALL (     315 calls)
     ffts         :     92.24s CPU      3.75s WALL (      53 calls)
     fftw         :   1374.81s CPU     46.40s WALL (    5764 calls)
     interpolate  :     93.34s CPU      3.79s WALL (      27 calls)
 
     Parallel routines

     PAW routines
     PAW_pot      :    710.28s CPU     24.02s WALL (      27 calls)
     PAW_symme    :      0.85s CPU      0.03s WALL (      53 calls)
 
     PWSCF        :  47m59.92s CPU   1m47.20s WALL

 
   This run was terminated on:   8:52:17  20May2023            

=------------------------------------------------------------------------------=
   JOB DONE.
=------------------------------------------------------------------------------=
