
     Program PWSCF v.7.0 starts on 20May2023 at 10:20: 9 

     This program is part of the open-source Quantum ESPRESSO suite
     for quantum simulation of materials; please cite
         "P. Giannozzi et al., J. Phys.:Condens. Matter 21 395502 (2009);
         "P. Giannozzi et al., J. Phys.:Condens. Matter 29 465901 (2017);
         "P. Giannozzi et al., J. Chem. Phys. 152 154105 (2020);
          URL http://www.quantum-espresso.org", 
     in publications or presentations arising from this work. More details at
     http://www.quantum-espresso.org/quote

     Parallel version (MPI & OpenMP), running on      32 processor cores
     Number of MPI processes:                 1
     Threads/MPI process:                    32

     MPI processes distributed on     1 nodes
     133745 MiB available memory on the printing compute node when the environment starts
 
     Reading input from espresso_1335.pwi
Warning: card &CELL ignored
Warning: card / ignored

     Current dimensions of program PWSCF are:
     Max number of different atomic species (ntypx) = 10
     Max number of k-points (npk) =  40000
     Max angular momentum in pseudopotentials (lmaxx) =  4
     file In.pbe-dn-rrkjus_psl.0.2.2.UPF: wavefunction(s)  5S renormalized

     gamma-point specific algorithms are used
     Message from routine setup:
     using ibrav=0 with symmetry is DISCOURAGED, use correct ibrav instead

     Subspace diagonalization in iterative solution of the eigenvalue problem:
     a serial algorithm will be used

 
     G-vector sticks info
     --------------------
     sticks:   dense  smooth     PW     G-vecs:    dense   smooth      PW
     Sum        2819    1409    349               109169    38609    4837
 
     Using Slab Decomposition
 


     bravais-lattice index     =            0
     lattice parameter (alat)  =      12.0998  a.u.
     unit-cell volume          =    1739.4807 (a.u.)^3
     number of atoms/cell      =            8
     number of atomic types    =            4
     number of electrons       =        88.00
     number of Kohn-Sham states=           53
     kinetic-energy cutoff     =      30.0000  Ry
     charge density cutoff     =     240.0000  Ry
     scf convergence threshold =      1.0E-06
     mixing beta               =       0.7000
     number of iterations used =            8  plain     mixing
     Exchange-correlation= SLA  PW   PBE  PBE
                           (   1   4   3   4   0   0   0)

     celldm(1)=  12.099777  celldm(2)=   0.000000  celldm(3)=   0.000000
     celldm(4)=   0.000000  celldm(5)=   0.000000  celldm(6)=   0.000000

     crystal axes: (cart. coord. in units of alat)
               a(1) = (   1.000000   0.000000   0.000000 )  
               a(2) = (   0.000000   1.008459   0.000000 )  
               a(3) = (   0.500000   0.504229   0.973709 )  

     reciprocal axes: (cart. coord. in units 2 pi/alat)
               b(1) = (  1.000000  0.000000 -0.513500 )  
               b(2) = (  0.000000  0.991612 -0.513500 )  
               b(3) = (  0.000000  0.000000  1.027000 )  


     PseudoPot. # 1 for In read from file:
     /home/pragov/projects/rrg-bengioy-ad/pragov/crystal_structure_design/SSSP/In.pbe-dn-rrkjus_psl.0.2.2.UPF
     MD5 check sum: 25e7c42c3b55b68f4bf926be2e7201a4
     Pseudo is Ultrasoft + core correction, Zval = 13.0
     Generated using "atomic" code by A. Dal Corso  v.5.0.99 svn rev. 10869
     Using radial grid of 1241 points,  6 beta functions with: 
                l(1) =   0
                l(2) =   0
                l(3) =   1
                l(4) =   1
                l(5) =   2
                l(6) =   2
     Q(r) pseudized with 0 coefficients 


     PseudoPot. # 2 for Ag read from file:
     /home/pragov/projects/rrg-bengioy-ad/pragov/crystal_structure_design/SSSP/Ag_ONCV_PBE-1.0.oncvpsp.upf
     MD5 check sum: 94f47bd0669c641108e45594df92fabc
     Pseudo is Norm-conserving, Zval = 19.0
     Generated using ONCVPSP code by D. R. Hamann
     Using radial grid of 1398 points,  6 beta functions with: 
                l(1) =   0
                l(2) =   0
                l(3) =   1
                l(4) =   1
                l(5) =   2
                l(6) =   2

     PseudoPot. # 3 for Te read from file:
     /home/pragov/projects/rrg-bengioy-ad/pragov/crystal_structure_design/SSSP/Te_pbe_v1.uspp.F.UPF
     MD5 check sum: c319670d6894cc26e93307826a071b75
     Pseudo is Ultrasoft + core correction, Zval =  6.0
     Generated by new atomic code, or converted to UPF format
     Using radial grid of  891 points,  5 beta functions with: 
                l(1) =   0
                l(2) =   0
                l(3) =   1
                l(4) =   1
                l(5) =   2
     Q(r) pseudized with  6 coefficients,  rinner =    1.800   1.800   1.800
                                                       1.800   1.800

     PseudoPot. # 4 for Se read from file:
     /home/pragov/projects/rrg-bengioy-ad/pragov/crystal_structure_design/SSSP/Se_pbe_v1.uspp.F.UPF
     MD5 check sum: 1b3568f3a8ae88f9a2a0ad0698632c85
     Pseudo is Ultrasoft + core correction, Zval =  6.0
     Generated by new atomic code, or converted to UPF format
     Using radial grid of  877 points,  6 beta functions with: 
                l(1) =   0
                l(2) =   0
                l(3) =   1
                l(4) =   1
                l(5) =   2
                l(6) =   2
     Q(r) pseudized with  8 coefficients,  rinner =    1.300   1.300   1.300
                                                       1.300   1.300

     atomic species   valence    mass     pseudopotential
        In            13.00   114.81800     In( 1.00)
        Ag            19.00   107.86820     Ag( 1.00)
        Te             6.00   127.60000     Te( 1.00)
        Se             6.00    78.97100     Se( 1.00)

      2 Sym. Ops. (no inversion) found


                                    s                        frac. trans.

      isym =  1     identity                                     

 cryst.   s( 1) = (     1          0          0      )
                  (     0          1          0      )
                  (     0          0          1      )

 cart.    s( 1) = (  1.0000000  0.0000000  0.0000000 )
                  (  0.0000000  1.0000000  0.0000000 )
                  (  0.0000000  0.0000000  1.0000000 )


      isym =  2     180 deg rotation - cart. axis [0,0,1]        

 cryst.   s( 2) = (    -1          0          0      )
                  (     0         -1          0      )
                  (    -1         -1          1      )

 cart.    s( 2) = ( -1.0000000  0.0000000 -0.0000003 )
                  (  0.0000000 -1.0000000 -0.0000003 )
                  (  0.0000000  0.0000000  1.0000000 )


   Cartesian axes

     site n.     atom                  positions (alat units)
         1           In  tau(   1) = (   0.5000004   1.0084594   0.5039443  )
         2           In  tau(   2) = (   0.9999993   1.0084583   0.9566198  )
         3           Ag  tau(   3) = (   1.0000004   0.5042299   0.4990017  )
         4           Ag  tau(   4) = (   0.4999993   0.5042288   0.9615623  )
         5           Te  tau(   5) = (   0.2456970   0.2521147   0.2434273  )
         6           Te  tau(   6) = (   0.7543030   0.7563442   0.2434273  )
         7           Se  tau(   7) = (   0.7499999   1.2544653   0.7302820  )
         8           Se  tau(   8) = (   1.2499999   0.7624523   0.7302820  )

   Crystallographic axes

     site n.     atom                  positions (cryst. coord.)
         1           In  tau(   1) = (  0.2412250  0.7412250  0.5175510  )
         2           In  tau(   2) = (  0.5087750  0.5087750  0.9824490  )
         3           Ag  tau(   3) = (  0.7437630  0.2437630  0.5124750  )
         4           Ag  tau(   4) = (  0.0062370  0.0062370  0.9875250  )
         5           Te  tau(   5) = (  0.1206970  0.1250000  0.2500000  )
         6           Te  tau(   6) = (  0.6293030  0.6250000  0.2500000  )
         7           Se  tau(   7) = (  0.3750000  0.8689430  0.7500000  )
         8           Se  tau(   8) = (  0.8750000  0.3810570  0.7500000  )

     number of k points=     1  Methfessel-Paxton smearing, width (Ry)=  0.0010
                       cart. coord. in units 2pi/alat
        k(    1) = (   0.0000000   0.0000000   0.0000000), wk =   2.0000000

                       cryst. coord.
        k(    1) = (   0.0000000   0.0000000   0.0000000), wk =   2.0000000

     Dense  grid:    54585 G-vectors     FFT dimensions: (  60,  64,  72)

     Smooth grid:    19305 G-vectors     FFT dimensions: (  45,  45,  54)

     Dynamical RAM for                 wfc:       1.95 MB

     Dynamical RAM for     wfc (w. buffer):       1.95 MB

     Dynamical RAM for           str. fact:       3.33 MB

     Dynamical RAM for           local pot:       0.00 MB

     Dynamical RAM for          nlocal pot:       4.93 MB

     Dynamical RAM for                qrad:       4.98 MB

     Dynamical RAM for          rho,v,vnew:       8.83 MB

     Dynamical RAM for               rhoin:       2.94 MB

     Dynamical RAM for            rho*nmix:      13.33 MB

     Dynamical RAM for           G-vectors:       3.27 MB

     Dynamical RAM for          h,s,v(r/c):       0.26 MB

     Dynamical RAM for          <psi|beta>:       0.05 MB

     Dynamical RAM for                 psi:       3.90 MB

     Dynamical RAM for                hpsi:       3.90 MB

     Dynamical RAM for                spsi:       3.90 MB

     Dynamical RAM for      wfcinit/wfcrot:       4.04 MB

     Dynamical RAM for           addusdens:     156.59 MB

     Dynamical RAM for          addusforce:     158.68 MB

     Dynamical RAM for         addusstress:     167.41 MB

     Estimated static dynamical RAM per process >      44.94 MB

     Estimated max dynamical RAM per process >     225.68 MB

     Initial potential from superposition of free atoms

     starting charge      87.9914, renormalised to      88.0000
     Starting wfcs are   54 randomized atomic wfcs

     total cpu time spent up to now is        8.0 secs

     Self-consistent Calculation

     iteration #  1     ecut=    30.00 Ry     beta= 0.70
     Davidson diagonalization with overlap

---- Real-time Memory Report at c_bands before calling an iterative solver
           452 MiB given to the printing process from OS
             0 MiB allocation reported by mallinfo(arena+hblkhd)
        133614 MiB available memory on the node where the printing process lives
------------------
     ethr =  1.00E-02,  avg # of iterations =  5.0

     Threshold (ethr) on eigenvalues was too large:
     Diagonalizing with lowered threshold

     Davidson diagonalization with overlap

---- Real-time Memory Report at c_bands before calling an iterative solver
           595 MiB given to the printing process from OS
             0 MiB allocation reported by mallinfo(arena+hblkhd)
        133488 MiB available memory on the node where the printing process lives
------------------
     ethr =  5.72E-04,  avg # of iterations =  2.0

     total cpu time spent up to now is        9.6 secs

     total energy              =   -1003.91455033 Ry
     estimated scf accuracy    <       0.46537279 Ry

     iteration #  2     ecut=    30.00 Ry     beta= 0.70
     Davidson diagonalization with overlap

---- Real-time Memory Report at c_bands before calling an iterative solver
           638 MiB given to the printing process from OS
             0 MiB allocation reported by mallinfo(arena+hblkhd)
        133443 MiB available memory on the node where the printing process lives
------------------
     ethr =  5.29E-04,  avg # of iterations =  3.0

     total cpu time spent up to now is       10.5 secs

     total energy              =   -1003.92123366 Ry
     estimated scf accuracy    <       0.95912250 Ry

     iteration #  3     ecut=    30.00 Ry     beta= 0.70
     Davidson diagonalization with overlap

---- Real-time Memory Report at c_bands before calling an iterative solver
           651 MiB given to the printing process from OS
             0 MiB allocation reported by mallinfo(arena+hblkhd)
        133449 MiB available memory on the node where the printing process lives
------------------
     ethr =  5.29E-04,  avg # of iterations =  2.0

     total cpu time spent up to now is       11.4 secs

     total energy              =   -1004.09612524 Ry
     estimated scf accuracy    <       0.06707667 Ry

     iteration #  4     ecut=    30.00 Ry     beta= 0.70
     Davidson diagonalization with overlap

---- Real-time Memory Report at c_bands before calling an iterative solver
           651 MiB given to the printing process from OS
             0 MiB allocation reported by mallinfo(arena+hblkhd)
        133447 MiB available memory on the node where the printing process lives
------------------
     ethr =  7.62E-05,  avg # of iterations =  2.0

     total cpu time spent up to now is       12.3 secs

     total energy              =   -1004.10618090 Ry
     estimated scf accuracy    <       0.04130036 Ry

     iteration #  5     ecut=    30.00 Ry     beta= 0.70
     Davidson diagonalization with overlap

---- Real-time Memory Report at c_bands before calling an iterative solver
           653 MiB given to the printing process from OS
             0 MiB allocation reported by mallinfo(arena+hblkhd)
        133445 MiB available memory on the node where the printing process lives
------------------
     ethr =  4.69E-05,  avg # of iterations = 13.0

     total cpu time spent up to now is       13.2 secs

     total energy              =   -1004.10736466 Ry
     estimated scf accuracy    <       0.04717557 Ry

     iteration #  6     ecut=    30.00 Ry     beta= 0.70
     Davidson diagonalization with overlap

---- Real-time Memory Report at c_bands before calling an iterative solver
           654 MiB given to the printing process from OS
             0 MiB allocation reported by mallinfo(arena+hblkhd)
        133445 MiB available memory on the node where the printing process lives
------------------
     ethr =  4.69E-05,  avg # of iterations =  1.0

     total cpu time spent up to now is       14.0 secs

     total energy              =   -1004.10878319 Ry
     estimated scf accuracy    <       0.01629212 Ry

     iteration #  7     ecut=    30.00 Ry     beta= 0.70
     Davidson diagonalization with overlap

---- Real-time Memory Report at c_bands before calling an iterative solver
           655 MiB given to the printing process from OS
             0 MiB allocation reported by mallinfo(arena+hblkhd)
        133444 MiB available memory on the node where the printing process lives
------------------
     ethr =  1.85E-05,  avg # of iterations =  1.0

     total cpu time spent up to now is       14.8 secs

     total energy              =   -1004.10969849 Ry
     estimated scf accuracy    <       0.00544861 Ry

     iteration #  8     ecut=    30.00 Ry     beta= 0.70
     Davidson diagonalization with overlap

---- Real-time Memory Report at c_bands before calling an iterative solver
           655 MiB given to the printing process from OS
             0 MiB allocation reported by mallinfo(arena+hblkhd)
        133445 MiB available memory on the node where the printing process lives
------------------
     ethr =  6.19E-06,  avg # of iterations =  1.0

     total cpu time spent up to now is       15.6 secs

     total energy              =   -1004.10951913 Ry
     estimated scf accuracy    <       0.01782819 Ry

     iteration #  9     ecut=    30.00 Ry     beta= 0.70
     Davidson diagonalization with overlap

---- Real-time Memory Report at c_bands before calling an iterative solver
           655 MiB given to the printing process from OS
             0 MiB allocation reported by mallinfo(arena+hblkhd)
        133445 MiB available memory on the node where the printing process lives
------------------
     ethr =  6.19E-06,  avg # of iterations =  1.0

     total cpu time spent up to now is       16.4 secs

     total energy              =   -1004.10987084 Ry
     estimated scf accuracy    <       0.00393738 Ry

     iteration # 10     ecut=    30.00 Ry     beta= 0.70
     Davidson diagonalization with overlap

---- Real-time Memory Report at c_bands before calling an iterative solver
           655 MiB given to the printing process from OS
             0 MiB allocation reported by mallinfo(arena+hblkhd)
        133445 MiB available memory on the node where the printing process lives
------------------
     ethr =  4.47E-06,  avg # of iterations =  1.0

     total cpu time spent up to now is       17.2 secs

     total energy              =   -1004.11000598 Ry
     estimated scf accuracy    <       0.00052566 Ry

     iteration # 11     ecut=    30.00 Ry     beta= 0.70
     Davidson diagonalization with overlap

---- Real-time Memory Report at c_bands before calling an iterative solver
           655 MiB given to the printing process from OS
             0 MiB allocation reported by mallinfo(arena+hblkhd)
        133446 MiB available memory on the node where the printing process lives
------------------
     ethr =  5.97E-07,  avg # of iterations =  5.0

     total cpu time spent up to now is       18.1 secs

     total energy              =   -1004.11002327 Ry
     estimated scf accuracy    <       0.00039058 Ry

     iteration # 12     ecut=    30.00 Ry     beta= 0.70
     Davidson diagonalization with overlap

---- Real-time Memory Report at c_bands before calling an iterative solver
           655 MiB given to the printing process from OS
             0 MiB allocation reported by mallinfo(arena+hblkhd)
        133447 MiB available memory on the node where the printing process lives
------------------
     ethr =  4.44E-07,  avg # of iterations =  1.0

     total cpu time spent up to now is       18.9 secs

     total energy              =   -1004.10996071 Ry
     estimated scf accuracy    <       0.00034644 Ry

     iteration # 13     ecut=    30.00 Ry     beta= 0.70
     Davidson diagonalization with overlap

---- Real-time Memory Report at c_bands before calling an iterative solver
           655 MiB given to the printing process from OS
             0 MiB allocation reported by mallinfo(arena+hblkhd)
        133449 MiB available memory on the node where the printing process lives
------------------
     ethr =  3.94E-07,  avg # of iterations =  1.0

     total cpu time spent up to now is       19.7 secs

     total energy              =   -1004.11001914 Ry
     estimated scf accuracy    <       0.00215696 Ry

     iteration # 14     ecut=    30.00 Ry     beta= 0.70
     Davidson diagonalization with overlap

---- Real-time Memory Report at c_bands before calling an iterative solver
           655 MiB given to the printing process from OS
             0 MiB allocation reported by mallinfo(arena+hblkhd)
        133449 MiB available memory on the node where the printing process lives
------------------
     ethr =  3.94E-07,  avg # of iterations =  1.0

     total cpu time spent up to now is       20.5 secs

     total energy              =   -1004.10980827 Ry
     estimated scf accuracy    <       0.00193853 Ry

     iteration # 15     ecut=    30.00 Ry     beta= 0.70
     Davidson diagonalization with overlap

---- Real-time Memory Report at c_bands before calling an iterative solver
           655 MiB given to the printing process from OS
             0 MiB allocation reported by mallinfo(arena+hblkhd)
        133450 MiB available memory on the node where the printing process lives
------------------
     ethr =  3.94E-07,  avg # of iterations =  1.0

     total cpu time spent up to now is       21.3 secs

     total energy              =   -1004.10998578 Ry
     estimated scf accuracy    <       0.00086783 Ry

     iteration # 16     ecut=    30.00 Ry     beta= 0.70
     Davidson diagonalization with overlap

---- Real-time Memory Report at c_bands before calling an iterative solver
           655 MiB given to the printing process from OS
             0 MiB allocation reported by mallinfo(arena+hblkhd)
        133451 MiB available memory on the node where the printing process lives
------------------
     ethr =  3.94E-07,  avg # of iterations =  1.0

     total cpu time spent up to now is       22.1 secs

     total energy              =   -1004.11000276 Ry
     estimated scf accuracy    <       0.00031965 Ry

     iteration # 17     ecut=    30.00 Ry     beta= 0.70
     Davidson diagonalization with overlap

---- Real-time Memory Report at c_bands before calling an iterative solver
           655 MiB given to the printing process from OS
             0 MiB allocation reported by mallinfo(arena+hblkhd)
        133453 MiB available memory on the node where the printing process lives
------------------
     ethr =  3.63E-07,  avg # of iterations =  1.0

     total cpu time spent up to now is       22.9 secs

     total energy              =   -1004.10995655 Ry
     estimated scf accuracy    <       0.00044639 Ry

     iteration # 18     ecut=    30.00 Ry     beta= 0.70
     Davidson diagonalization with overlap

---- Real-time Memory Report at c_bands before calling an iterative solver
           655 MiB given to the printing process from OS
             0 MiB allocation reported by mallinfo(arena+hblkhd)
        133453 MiB available memory on the node where the printing process lives
------------------
     ethr =  3.63E-07,  avg # of iterations =  1.0

     total cpu time spent up to now is       23.6 secs

     total energy              =   -1004.10994206 Ry
     estimated scf accuracy    <       0.00170004 Ry

     iteration # 19     ecut=    30.00 Ry     beta= 0.70
     Davidson diagonalization with overlap

---- Real-time Memory Report at c_bands before calling an iterative solver
           655 MiB given to the printing process from OS
             0 MiB allocation reported by mallinfo(arena+hblkhd)
        133453 MiB available memory on the node where the printing process lives
------------------
     ethr =  3.63E-07,  avg # of iterations =  1.0

     total cpu time spent up to now is       24.4 secs

     total energy              =   -1004.10997724 Ry
     estimated scf accuracy    <       0.00013977 Ry

     iteration # 20     ecut=    30.00 Ry     beta= 0.70
     Davidson diagonalization with overlap

---- Real-time Memory Report at c_bands before calling an iterative solver
           655 MiB given to the printing process from OS
             0 MiB allocation reported by mallinfo(arena+hblkhd)
        133454 MiB available memory on the node where the printing process lives
------------------
     ethr =  1.59E-07,  avg # of iterations =  1.0

     total cpu time spent up to now is       25.2 secs

     total energy              =   -1004.10997295 Ry
     estimated scf accuracy    <       0.00013152 Ry

     iteration # 21     ecut=    30.00 Ry     beta= 0.70
     Davidson diagonalization with overlap

---- Real-time Memory Report at c_bands before calling an iterative solver
           655 MiB given to the printing process from OS
             0 MiB allocation reported by mallinfo(arena+hblkhd)
        133454 MiB available memory on the node where the printing process lives
------------------
     ethr =  1.49E-07,  avg # of iterations =  1.0

     total cpu time spent up to now is       26.0 secs

     total energy              =   -1004.10997200 Ry
     estimated scf accuracy    <       0.00011698 Ry

     iteration # 22     ecut=    30.00 Ry     beta= 0.70
     Davidson diagonalization with overlap

---- Real-time Memory Report at c_bands before calling an iterative solver
           655 MiB given to the printing process from OS
             0 MiB allocation reported by mallinfo(arena+hblkhd)
        133455 MiB available memory on the node where the printing process lives
------------------
     ethr =  1.33E-07,  avg # of iterations =  1.0

     total cpu time spent up to now is       26.8 secs

     total energy              =   -1004.10997070 Ry
     estimated scf accuracy    <       0.00003095 Ry

     iteration # 23     ecut=    30.00 Ry     beta= 0.70
     Davidson diagonalization with overlap

---- Real-time Memory Report at c_bands before calling an iterative solver
           655 MiB given to the printing process from OS
             0 MiB allocation reported by mallinfo(arena+hblkhd)
        133454 MiB available memory on the node where the printing process lives
------------------
     ethr =  3.52E-08,  avg # of iterations =  1.0

     total cpu time spent up to now is       27.6 secs

     total energy              =   -1004.10996644 Ry
     estimated scf accuracy    <       0.00016408 Ry

     iteration # 24     ecut=    30.00 Ry     beta= 0.70
     Davidson diagonalization with overlap

---- Real-time Memory Report at c_bands before calling an iterative solver
           655 MiB given to the printing process from OS
             0 MiB allocation reported by mallinfo(arena+hblkhd)
        133455 MiB available memory on the node where the printing process lives
------------------
     ethr =  3.52E-08,  avg # of iterations =  1.0

     total cpu time spent up to now is       28.4 secs

     total energy              =   -1004.10995762 Ry
     estimated scf accuracy    <       0.00042653 Ry

     iteration # 25     ecut=    30.00 Ry     beta= 0.70
     Davidson diagonalization with overlap

---- Real-time Memory Report at c_bands before calling an iterative solver
           655 MiB given to the printing process from OS
             0 MiB allocation reported by mallinfo(arena+hblkhd)
        133455 MiB available memory on the node where the printing process lives
------------------
     ethr =  3.52E-08,  avg # of iterations =  1.0

     total cpu time spent up to now is       29.8 secs

     total energy              =   -1004.10997382 Ry
     estimated scf accuracy    <       0.00001007 Ry

     iteration # 26     ecut=    30.00 Ry     beta= 0.70
     Davidson diagonalization with overlap

---- Real-time Memory Report at c_bands before calling an iterative solver
           655 MiB given to the printing process from OS
             0 MiB allocation reported by mallinfo(arena+hblkhd)
        133456 MiB available memory on the node where the printing process lives
------------------
     ethr =  1.14E-08,  avg # of iterations =  1.0

     total cpu time spent up to now is       31.4 secs

     total energy              =   -1004.10997325 Ry
     estimated scf accuracy    <       0.00002507 Ry

     iteration # 27     ecut=    30.00 Ry     beta= 0.70
     Davidson diagonalization with overlap

---- Real-time Memory Report at c_bands before calling an iterative solver
           655 MiB given to the printing process from OS
             0 MiB allocation reported by mallinfo(arena+hblkhd)
        133455 MiB available memory on the node where the printing process lives
------------------
     ethr =  1.14E-08,  avg # of iterations =  1.0

     total cpu time spent up to now is       32.2 secs

     total energy              =   -1004.10997343 Ry
     estimated scf accuracy    <       0.00002614 Ry

     iteration # 28     ecut=    30.00 Ry     beta= 0.70
     Davidson diagonalization with overlap

---- Real-time Memory Report at c_bands before calling an iterative solver
           655 MiB given to the printing process from OS
             0 MiB allocation reported by mallinfo(arena+hblkhd)
        133456 MiB available memory on the node where the printing process lives
------------------
     ethr =  1.14E-08,  avg # of iterations =  1.0

     total cpu time spent up to now is       33.0 secs

     total energy              =   -1004.10997412 Ry
     estimated scf accuracy    <       0.00000787 Ry

     iteration # 29     ecut=    30.00 Ry     beta= 0.70
     Davidson diagonalization with overlap

---- Real-time Memory Report at c_bands before calling an iterative solver
           655 MiB given to the printing process from OS
             0 MiB allocation reported by mallinfo(arena+hblkhd)
        133455 MiB available memory on the node where the printing process lives
------------------
     ethr =  8.94E-09,  avg # of iterations =  1.0

     total cpu time spent up to now is       33.8 secs

     total energy              =   -1004.10997392 Ry
     estimated scf accuracy    <       0.00001477 Ry

     iteration # 30     ecut=    30.00 Ry     beta= 0.70
     Davidson diagonalization with overlap

---- Real-time Memory Report at c_bands before calling an iterative solver
           655 MiB given to the printing process from OS
             0 MiB allocation reported by mallinfo(arena+hblkhd)
        133456 MiB available memory on the node where the printing process lives
------------------
     ethr =  8.94E-09,  avg # of iterations =  1.0

     total cpu time spent up to now is       34.6 secs

     total energy              =   -1004.10997398 Ry
     estimated scf accuracy    <       0.00001627 Ry

     iteration # 31     ecut=    30.00 Ry     beta= 0.70
     Davidson diagonalization with overlap

---- Real-time Memory Report at c_bands before calling an iterative solver
           655 MiB given to the printing process from OS
             0 MiB allocation reported by mallinfo(arena+hblkhd)
        133456 MiB available memory on the node where the printing process lives
------------------
     ethr =  8.94E-09,  avg # of iterations =  1.0

     total cpu time spent up to now is       35.5 secs

     total energy              =   -1004.10997441 Ry
     estimated scf accuracy    <       0.00000177 Ry

     iteration # 32     ecut=    30.00 Ry     beta= 0.70
     Davidson diagonalization with overlap

---- Real-time Memory Report at c_bands before calling an iterative solver
           655 MiB given to the printing process from OS
             0 MiB allocation reported by mallinfo(arena+hblkhd)
        133454 MiB available memory on the node where the printing process lives
------------------
     ethr =  2.01E-09,  avg # of iterations =  4.0

     total cpu time spent up to now is       36.5 secs

     total energy              =   -1004.10997367 Ry
     estimated scf accuracy    <       0.00002735 Ry

     iteration # 33     ecut=    30.00 Ry     beta= 0.70
     Davidson diagonalization with overlap

---- Real-time Memory Report at c_bands before calling an iterative solver
           655 MiB given to the printing process from OS
             0 MiB allocation reported by mallinfo(arena+hblkhd)
        133450 MiB available memory on the node where the printing process lives
------------------
     ethr =  2.01E-09,  avg # of iterations =  1.0

     total cpu time spent up to now is       37.8 secs

     total energy              =   -1004.10997457 Ry
     estimated scf accuracy    <       0.00000124 Ry

     iteration # 34     ecut=    30.00 Ry     beta= 0.70
     Davidson diagonalization with overlap

---- Real-time Memory Report at c_bands before calling an iterative solver
           655 MiB given to the printing process from OS
             0 MiB allocation reported by mallinfo(arena+hblkhd)
        133450 MiB available memory on the node where the printing process lives
------------------
     ethr =  1.41E-09,  avg # of iterations =  1.0

     total cpu time spent up to now is       38.6 secs

     End of self-consistent calculation

          k = 0.0000 0.0000 0.0000 (  2419 PWs)   bands (ev):

   -86.5923 -86.5921 -49.6659 -49.6644 -49.6286 -49.6280 -49.6197 -49.6180
    -8.9398  -8.9075  -8.8401  -8.7836  -8.7768  -8.7633  -8.7208  -8.7179
    -8.7085  -8.7076  -6.8697  -6.3495  -5.0293  -4.6021  -0.2170   0.8922
     1.5314   1.6723   1.6803   1.7256   1.8968   1.9828   2.0687   2.0937
     2.2110   2.2922   2.5778   2.7473   2.9266   3.3798   3.6543   3.8592
     3.9719   5.6493   5.6530   5.6573   5.6628   7.9943   8.1236   9.6463
     9.6706   9.7702  10.0554  10.1507  10.2229

     occupation numbers 
     1.0000   1.0000   1.0000   1.0000   1.0000   1.0000   1.0000   1.0000
     1.0000   1.0000   1.0000   1.0000   1.0000   1.0000   1.0000   1.0000
     1.0000   1.0000   1.0000   1.0000   1.0000   1.0000   1.0000   1.0000
     1.0000   1.0000   1.0000   1.0000   1.0000   1.0000   1.0000   1.0000
     1.0000   1.0000   1.0000   1.0000   1.0000   1.0000   1.0000   1.0000
     1.0000   1.0007   0.9067   0.7121   0.3805  -0.0000  -0.0000  -0.0000
    -0.0000  -0.0000  -0.0000  -0.0000  -0.0000

     the Fermi energy is     5.6608 ev

!    total energy              =   -1004.10997446 Ry
     estimated scf accuracy    <       0.00000026 Ry
     smearing contrib. (-TS)   =      -0.00050457 Ry
     internal energy E=F+TS    =   -1004.10946989 Ry

     The total energy is F=E-TS. E is the sum of the following terms:
     one-electron contribution =    -595.38277813 Ry
     hartree contribution      =     331.72686223 Ry
     xc contribution           =    -237.63158020 Ry
     ewald contribution        =    -502.82197379 Ry

     convergence has been achieved in  34 iterations

     Forces acting on atoms (cartesian axes, Ry/au):

     atom    1 type  1   force =     0.00000000    0.00000000    0.00798446
     atom    2 type  1   force =     0.00000000    0.00000000   -0.00792176
     atom    3 type  2   force =     0.00000000    0.00000000    0.00970499
     atom    4 type  2   force =     0.00000000    0.00000000   -0.00972144
     atom    5 type  3   force =    -0.00759176    0.00000444   -0.00001003
     atom    6 type  3   force =     0.00759176   -0.00000444   -0.00001003
     atom    7 type  4   force =    -0.00000041    0.01311215   -0.00001310
     atom    8 type  4   force =     0.00000041   -0.01311215   -0.00001310
     The non-local contrib.  to forces
     atom    1 type  1   force =     0.00000000    0.00000000    0.00965605
     atom    2 type  1   force =     0.00000000    0.00000000   -0.00951622
     atom    3 type  2   force =     0.00000000    0.00000000    0.03208138
     atom    4 type  2   force =     0.00000000    0.00000000   -0.03195740
     atom    5 type  3   force =    -0.05839389    0.00004922   -0.00001720
     atom    6 type  3   force =     0.05839389   -0.00004922   -0.00001718
     atom    7 type  4   force =     0.00001894   -0.10897553    0.00005106
     atom    8 type  4   force =    -0.00001894    0.10897553    0.00005109
     The ionic contribution  to forces
     atom    1 type  1   force =    -0.00002731   -0.00002881   -1.94672461
     atom    2 type  1   force =     0.00001707    0.00001863    1.94672461
     atom    3 type  2   force =    -0.00003893   -0.00003745   -1.79736207
     atom    4 type  2   force =     0.00002934    0.00002790    1.79736207
     atom    5 type  3   force =     2.22809899   -0.00002442   -0.00000596
     atom    6 type  3   force =    -2.22814827   -0.00002442    0.00000596
     atom    7 type  4   force =     0.00003456   -1.94453182   -0.00000564
     atom    8 type  4   force =     0.00003456    1.94460039    0.00000564
     The local contribution  to forces
     atom    1 type  1   force =    -0.00000317   -0.00001522    1.94675825
     atom    2 type  1   force =    -0.00020950    0.00005045   -1.94702914
     atom    3 type  2   force =    -0.00058615   -0.00006471    1.77448004
     atom    4 type  2   force =    -0.00052866   -0.00056684   -1.77483458
     atom    5 type  3   force =    -2.16624177    0.00020818    0.00008108
     atom    6 type  3   force =     2.16670589    0.00027925    0.00003283
     atom    7 type  4   force =    -0.00021753    2.05503623   -0.00006108
     atom    8 type  4   force =    -0.00020531   -2.05542899   -0.00005395
     The core correction contribution to forces
     atom    1 type  1   force =    -0.00000798   -0.00000160   -0.00197232
     atom    2 type  1   force =    -0.00000770   -0.00000540    0.00196311
     atom    3 type  2   force =     0.00000000    0.00000000    0.00000000
     atom    4 type  2   force =     0.00000000    0.00000000    0.00000000
     atom    5 type  3   force =    -0.01097250   -0.00001911   -0.00000422
     atom    6 type  3   force =     0.01092689   -0.00002942   -0.00000157
     atom    7 type  4   force =    -0.00002777    0.01151823   -0.00000800
     atom    8 type  4   force =    -0.00002323   -0.01156312   -0.00000500
     The Hubbard contrib.    to forces
     atom    1 type  1   force =     0.00000000    0.00000000    0.00000000
     atom    2 type  1   force =     0.00000000    0.00000000    0.00000000
     atom    3 type  2   force =     0.00000000    0.00000000    0.00000000
     atom    4 type  2   force =     0.00000000    0.00000000    0.00000000
     atom    5 type  3   force =     0.00000000    0.00000000    0.00000000
     atom    6 type  3   force =     0.00000000    0.00000000    0.00000000
     atom    7 type  4   force =     0.00000000    0.00000000    0.00000000
     atom    8 type  4   force =     0.00000000    0.00000000    0.00000000
     The SCF correction term to forces
     atom    1 type  1   force =    -0.00002836    0.00003085    0.00028630
     atom    2 type  1   force =     0.00013276   -0.00012912   -0.00004491
     atom    3 type  2   force =     0.00053627    0.00006558    0.00052484
     atom    4 type  2   force =     0.00035353    0.00047230   -0.00027231
     atom    5 type  3   force =     0.00011454    0.00000206   -0.00003289
     atom    6 type  3   force =    -0.00008951    0.00003085   -0.00002248
     atom    7 type  4   force =     0.00000455   -0.00010321    0.00001970
     atom    8 type  4   force =     0.00002649    0.00013579    0.00001839

     Total force =     0.027827     Total SCF correction =     0.001079


     Computing stress (Cartesian axis) and pressure

          total   stress  (Ry/bohr**3)                   (kbar)     P=     -220.06
  -0.00130649   0.00000022  -0.00000000         -192.19        0.03       -0.00
   0.00000022  -0.00136346  -0.00000000            0.03     -200.57       -0.00
  -0.00000000  -0.00000000  -0.00181788           -0.00       -0.00     -267.42

     kinetic stress (kbar)  15253.91     -0.07      0.00
                               -0.07  15245.10      0.00
                                0.00      0.00  15182.00

     local   stress (kbar)  -6924.27      0.12     -0.00
                                0.12  -7239.85      0.17
                               -0.00      0.17  -6402.66

     nonloc. stress (kbar)   -336.66      0.03     -0.00
                                0.03   -346.04     -0.00
                               -0.00     -0.00   -329.88

     hartree stress (kbar)   9378.14     -0.05      0.01
                               -0.05   9490.24     -0.07
                                0.01     -0.07   9185.22

     exc-cor stress (kbar)   7620.70     -0.00     -0.00
                               -0.00   7621.24     -0.00
                               -0.00     -0.00   7619.08

     corecor stress (kbar) -11052.13      0.01      0.00
                                0.01 -11053.86      0.01
                                0.00      0.01 -11047.61

     ewald   stress (kbar) -14131.88      0.00      0.01
                                0.00 -13917.40      0.00
                                0.01      0.00 -14473.57

     hubbard stress (kbar)      0.00      0.00      0.00
                                0.00      0.00      0.00
                                0.00      0.00      0.00

     DFT-D   stress (kbar)      0.00      0.00      0.00
                                0.00      0.00      0.00
                                0.00      0.00      0.00

     XDM     stress (kbar)      0.00      0.00      0.00
                                0.00      0.00      0.00
                                0.00      0.00      0.00

     dft-nl  stress (kbar)      0.00      0.00      0.00
                                0.00      0.00      0.00
                                0.00      0.00      0.00

     TS-vdW  stress (kbar)      0.00      0.00      0.00
                                0.00      0.00      0.00
                                0.00      0.00      0.00


                                0.00      0.00      0.00
                                0.00      0.00      0.00


                                0.00      0.00      0.00


     Writing all to output data dir new_calculations/myprefix.save/
 
     init_run     :    129.46s CPU      7.71s WALL (       1 calls)
     electrons    :    874.30s CPU     30.73s WALL (       1 calls)
     forces       :     10.28s CPU      0.34s WALL (       1 calls)
     stress       :     29.75s CPU      0.97s WALL (       1 calls)

     Called by init_run:
     wfcinit      :     17.82s CPU      0.57s WALL (       1 calls)
     wfcinit:atom :      0.20s CPU      0.01s WALL (       1 calls)
     wfcinit:wfcr :     17.33s CPU      0.55s WALL (       1 calls)
     potinit      :     23.98s CPU      0.78s WALL (       1 calls)
     hinit0       :     84.01s CPU      6.21s WALL (       1 calls)

     Called by electrons:
     c_bands      :    471.68s CPU     15.04s WALL (      35 calls)
     sum_band     :    227.20s CPU      9.79s WALL (      35 calls)
     v_of_rho     :     30.15s CPU      1.00s WALL (      35 calls)
     v_h          :      2.90s CPU      0.09s WALL (      35 calls)
     v_xc         :     28.59s CPU      0.95s WALL (      37 calls)
     newd         :    132.00s CPU      4.47s WALL (      35 calls)
     mix_rho      :      9.49s CPU      0.31s WALL (      35 calls)

     Called by c_bands:
     init_us_2    :      0.87s CPU      0.03s WALL (      71 calls)
     init_us_2:cp :      0.77s CPU      0.03s WALL (      71 calls)
     regterg      :    467.43s CPU     14.90s WALL (      35 calls)

     Called by sum_band:
     sum_band:wei :      0.14s CPU      0.00s WALL (      35 calls)
     sum_band:loo :    106.71s CPU      3.40s WALL (      35 calls)
     sum_band:buf :      0.02s CPU      0.00s WALL (      35 calls)
     sum_band:ini :      0.45s CPU      0.01s WALL (      35 calls)
     sum_band:cal :      0.85s CPU      0.03s WALL (      35 calls)
     sum_band:bec :      0.10s CPU      0.00s WALL (      35 calls)
     addusdens    :    115.37s CPU      6.22s WALL (      35 calls)
     addusd:skk   :      0.27s CPU      0.01s WALL (     105 calls)
     addusd:dgemm :      9.77s CPU      2.72s WALL (     105 calls)
     addusd:qvan2 :    101.66s CPU      3.30s WALL (     105 calls)

     Called by *egterg:
     rdiaghg      :      8.38s CPU      0.28s WALL (      97 calls)
     regterg:over :      1.65s CPU      0.06s WALL (      63 calls)
     regterg:upda :      0.99s CPU      0.03s WALL (      63 calls)
     regterg:last :      1.29s CPU      0.04s WALL (      43 calls)
     h_psi        :    466.60s CPU     14.85s WALL (      99 calls)
     s_psi        :      0.31s CPU      0.01s WALL (      99 calls)
     g_psi        :      0.09s CPU      0.00s WALL (      63 calls)

     Called by h_psi:
     h_psi:calbec :      1.44s CPU      0.05s WALL (      99 calls)
     vloc_psi     :    463.77s CPU     14.75s WALL (      99 calls)
     add_vuspsi   :      0.66s CPU      0.02s WALL (      99 calls)

     General routines
     calbec       :      2.12s CPU      0.08s WALL (     139 calls)
     fft          :     71.70s CPU      2.63s WALL (     404 calls)
     ffts         :     19.07s CPU      0.62s WALL (      70 calls)
     fftw         :    506.72s CPU     16.06s WALL (    4939 calls)
     interpolate  :     21.14s CPU      0.69s WALL (      35 calls)
 
     Parallel routines
 
     PWSCF        :  17m31.36s CPU     40.74s WALL

 
   This run was terminated on:  10:20:50  20May2023            

=------------------------------------------------------------------------------=
   JOB DONE.
=------------------------------------------------------------------------------=
