
     Program PWSCF v.7.0 starts on 20May2023 at 11:29:28 

     This program is part of the open-source Quantum ESPRESSO suite
     for quantum simulation of materials; please cite
         "P. Giannozzi et al., J. Phys.:Condens. Matter 21 395502 (2009);
         "P. Giannozzi et al., J. Phys.:Condens. Matter 29 465901 (2017);
         "P. Giannozzi et al., J. Chem. Phys. 152 154105 (2020);
          URL http://www.quantum-espresso.org", 
     in publications or presentations arising from this work. More details at
     http://www.quantum-espresso.org/quote

     Parallel version (MPI & OpenMP), running on      32 processor cores
     Number of MPI processes:                 1
     Threads/MPI process:                    32

     MPI processes distributed on     1 nodes
     113636 MiB available memory on the printing compute node when the environment starts
 
     Reading input from espresso_3434.pwi
Warning: card &CELL ignored
Warning: card / ignored

     Current dimensions of program PWSCF are:
     Max number of different atomic species (ntypx) = 10
     Max number of k-points (npk) =  40000
     Max angular momentum in pseudopotentials (lmaxx) =  4
     file Fe.pbe-spn-kjpaw_psl.0.2.1.UPF: wavefunction(s)  3D renormalized
     file O.pbe-n-kjpaw_psl.0.1.UPF: wavefunction(s)  2P renormalized

     gamma-point specific algorithms are used
     Message from routine setup:
     using ibrav=0 with symmetry is DISCOURAGED, use correct ibrav instead

     Subspace diagonalization in iterative solution of the eigenvalue problem:
     a serial algorithm will be used

 
     G-vector sticks info
     --------------------
     sticks:   dense  smooth     PW     G-vecs:    dense   smooth      PW
     Sum        2131    1055    263               100831    35613    4445
 
     Using Slab Decomposition
 


     bravais-lattice index     =            0
     lattice parameter (alat)  =      10.8831  a.u.
     unit-cell volume          =    1605.7372 (a.u.)^3
     number of atoms/cell      =           20
     number of atomic types    =            4
     number of electrons       =       202.00
     number of Kohn-Sham states=          121
     kinetic-energy cutoff     =      30.0000  Ry
     charge density cutoff     =     240.0000  Ry
     scf convergence threshold =      1.0E-06
     mixing beta               =       0.7000
     number of iterations used =            8  plain     mixing
     Exchange-correlation= SLA  PW   PBX  PBC
                           (   1   4   3   4   0   0   0)

     celldm(1)=  10.883120  celldm(2)=   0.000000  celldm(3)=   0.000000
     celldm(4)=   0.000000  celldm(5)=   0.000000  celldm(6)=   0.000000

     crystal axes: (cart. coord. in units of alat)
               a(1) = (   1.000000   0.000000   0.000000 )  
               a(2) = (   0.000000   0.941572   0.000000 )  
               a(3) = (   0.000000   0.908104   1.323003 )  

     reciprocal axes: (cart. coord. in units 2 pi/alat)
               b(1) = (  1.000000  0.000000  0.000000 )  
               b(2) = (  0.000000  1.062054 -0.728990 )  
               b(3) = (  0.000000  0.000000  0.755856 )  


     PseudoPot. # 1 for Gd read from file:
     /home/pragov/projects/rrg-bengioy-ad/pragov/crystal_structure_design/SSSP/Gd.GGA-PBE-paw-v1.0.UPF
     MD5 check sum: 3e8e0d208da550914ae52eaf991d13de
     Pseudo is Projector augmented-wave + core cor, Zval = 18.0
     Generated using ATOMPAW code
     Shape of augmentation charge: BESSEL
     Using radial grid of 1110 points,  8 beta functions with: 
                l(1) =   0
                l(2) =   0
                l(3) =   1
                l(4) =   1
                l(5) =   2
                l(6) =   2
                l(7) =   3
                l(8) =   3
     Q(r) pseudized with 0 coefficients 


     PseudoPot. # 2 for V  read from file:
     /home/pragov/projects/rrg-bengioy-ad/pragov/crystal_structure_design/SSSP/v_pbe_v1.4.uspp.F.UPF
     MD5 check sum: 22b79981416ebb76fdaf5b1b8640f6fb
     Pseudo is Ultrasoft + core correction, Zval = 13.0
     Generated by new atomic code, or converted to UPF format
     Using radial grid of  853 points,  6 beta functions with: 
                l(1) =   0
                l(2) =   0
                l(3) =   1
                l(4) =   1
                l(5) =   2
                l(6) =   2
     Q(r) pseudized with  8 coefficients,  rinner =    1.100   1.100   1.100
                                                       1.100   1.100

     PseudoPot. # 3 for Fe read from file:
     /home/pragov/projects/rrg-bengioy-ad/pragov/crystal_structure_design/SSSP/Fe.pbe-spn-kjpaw_psl.0.2.1.UPF
     MD5 check sum: e86618425769142926afa95317d90200
     Pseudo is Projector augmented-wave + core cor, Zval = 16.0
     Generated using "atomic" code by A. Dal Corso  v.5.0.99 svn rev. 10869
     Shape of augmentation charge: PSQ
     Using radial grid of 1191 points,  6 beta functions with: 
                l(1) =   0
                l(2) =   0
                l(3) =   1
                l(4) =   1
                l(5) =   2
                l(6) =   2
     Q(r) pseudized with 0 coefficients 


     PseudoPot. # 4 for O  read from file:
     /home/pragov/projects/rrg-bengioy-ad/pragov/crystal_structure_design/SSSP/O.pbe-n-kjpaw_psl.0.1.UPF
     MD5 check sum: 0234752ac141de4415c5fc33072bef88
     Pseudo is Projector augmented-wave + core cor, Zval =  6.0
     Generated using "atomic" code by A. Dal Corso  v.5.0.99 svn rev. 10869
     Shape of augmentation charge: BESSEL
     Using radial grid of 1095 points,  4 beta functions with: 
                l(1) =   0
                l(2) =   0
                l(3) =   1
                l(4) =   1
     Q(r) pseudized with 0 coefficients 


     atomic species   valence    mass     pseudopotential
        Gd            18.00   157.25000     Gd( 1.00)
        V             13.00    50.94150     V ( 1.00)
        Fe            16.00    55.84500     Fe( 1.00)
        O              6.00    15.99900     O ( 1.00)

      4 Sym. Ops., with inversion, found ( 2 have fractional translation)


                                    s                        frac. trans.

      isym =  1     identity                                     

 cryst.   s( 1) = (     1          0          0      )
                  (     0          1          0      )
                  (     0          0          1      )

 cart.    s( 1) = (  1.0000000  0.0000000  0.0000000 )
                  (  0.0000000  1.0000000 -0.0000000 )
                  (  0.0000000  0.0000000  1.0000000 )


      isym =  2     180 deg rotation - cart. axis [1,0,0]        

 cryst.   s( 2) = (     1          0          0      )    f =(  0.5000000 )
                  (     0         -1          0      )       (  0.0000000 )
                  (     0          0         -1      )       (  0.5000000 )

 cart.    s( 2) = (  1.0000000  0.0000000  0.0000000 )    f =(  0.5000000 )
                  (  0.0000000 -1.0000000  0.0000000 )       (  0.4540522 )
                  (  0.0000000  0.0000000 -1.0000000 )       (  0.6615015 )


      isym =  3     inversion                                    

 cryst.   s( 3) = (    -1          0          0      )
                  (     0         -1          0      )
                  (     0          0         -1      )

 cart.    s( 3) = ( -1.0000000  0.0000000  0.0000000 )
                  (  0.0000000 -1.0000000  0.0000000 )
                  (  0.0000000  0.0000000 -1.0000000 )


      isym =  4     inv. 180 deg rotation - cart. axis [1,0,0]   

 cryst.   s( 4) = (    -1          0          0      )    f =(  0.5000000 )
                  (     0          1          0      )       (  0.0000000 )
                  (     0          0          1      )       (  0.5000000 )

 cart.    s( 4) = ( -1.0000000  0.0000000  0.0000000 )    f =(  0.5000000 )
                  (  0.0000000  1.0000000 -0.0000000 )       (  0.4540522 )
                  (  0.0000000  0.0000000  1.0000000 )       (  0.6615015 )


   Cartesian axes

     site n.     atom                  positions (alat units)
         1           Gd  tau(   1) = (   0.5698780   1.3655652   0.9948572  )
         2           Gd  tau(   2) = (   0.0698780   0.9381631   0.9896472  )
         3           Gd  tau(   3) = (   0.4301220   0.4841110   0.3281457  )
         4           Gd  tau(   4) = (   0.9301220   0.9115130   0.3333557  )
         5           V   tau(   5) = (   0.0000000   0.4540522   0.6615015  )
         6           V   tau(   6) = (   0.5000000   0.0000000   0.0000000  )
         7           Fe  tau(   7) = (   0.0000000   0.4707859   0.0000000  )
         8           Fe  tau(   8) = (   0.5000000   0.9248381   0.6615015  )
         9           O   tau(   9) = (   0.7960330   1.0815012   1.2464077  )
        10           O   tau(  10) = (   0.2960330   1.2222271   0.7380967  )
        11           O   tau(  11) = (   0.1837100   0.7360719   0.5900315  )
        12           O   tau(  12) = (   0.6837100   0.6595521   0.0714699  )
        13           O   tau(  13) = (   0.2039670   0.7681749   0.0765953  )
        14           O   tau(  14) = (   0.7039670   0.6274491   0.5849062  )
        15           O   tau(  15) = (   0.8162900   1.1136043   0.7329714  )
        16           O   tau(  16) = (   0.3162900   1.1901241   1.2515330  )
        17           O   tau(  17) = (   0.9657090   1.4916158   0.9759264  )
        18           O   tau(  18) = (   0.4657090   0.8121125   1.0085781  )
        19           O   tau(  19) = (   0.0342910   0.3580603   0.3470766  )
        20           O   tau(  20) = (   0.5342910   1.0375637   0.3144249  )

   Crystallographic axes

     site n.     atom                  positions (cryst. coord.)
         1           Gd  tau(   1) = (  0.5698780  0.7250630  0.7519690  )
         2           Gd  tau(   2) = (  0.0698780  0.2749370  0.7480310  )
         3           Gd  tau(   3) = (  0.4301220  0.2749370  0.2480310  )
         4           Gd  tau(   4) = (  0.9301220  0.7250630  0.2519690  )
         5           V   tau(   5) = (  0.0000000 -0.0000000  0.5000000  )
         6           V   tau(   6) = (  0.5000000  0.0000000  0.0000000  )
         7           Fe  tau(   7) = (  0.0000000  0.5000000  0.0000000  )
         8           Fe  tau(   8) = (  0.5000000  0.5000000  0.5000000  )
         9           O   tau(   9) = (  0.7960330  0.2399940  0.9421050  )
        10           O   tau(  10) = (  0.2960330  0.7600060  0.5578950  )
        11           O   tau(  11) = (  0.1837100  0.3516210  0.4459790  )
        12           O   tau(  12) = (  0.6837100  0.6483790  0.0540210  )
        13           O   tau(  13) = (  0.2039670  0.7600060  0.0578950  )
        14           O   tau(  14) = (  0.7039670  0.2399940  0.4421050  )
        15           O   tau(  15) = (  0.8162900  0.6483790  0.5540210  )
        16           O   tau(  16) = (  0.3162900  0.3516210  0.9459790  )
        17           O   tau(  17) = (  0.9657090  0.8727360  0.7376600  )
        18           O   tau(  18) = (  0.4657090  0.1272640  0.7623400  )
        19           O   tau(  19) = (  0.0342910  0.1272640  0.2623400  )
        20           O   tau(  20) = (  0.5342910  0.8727360  0.2376600  )

     number of k points=     1  Methfessel-Paxton smearing, width (Ry)=  0.0010
                       cart. coord. in units 2pi/alat
        k(    1) = (   0.0000000   0.0000000   0.0000000), wk =   2.0000000

                       cryst. coord.
        k(    1) = (   0.0000000   0.0000000   0.0000000), wk =   2.0000000

     Dense  grid:    50416 G-vectors     FFT dimensions: (  54,  54,  90)

     Smooth grid:    17807 G-vectors     FFT dimensions: (  40,  36,  64)

     Dynamical RAM for                 wfc:       4.11 MB

     Dynamical RAM for     wfc (w. buffer):       4.11 MB

     Dynamical RAM for           str. fact:       3.08 MB

     Dynamical RAM for           local pot:       0.00 MB

     Dynamical RAM for          nlocal pot:      10.06 MB

     Dynamical RAM for                qrad:      11.94 MB

     Dynamical RAM for          rho,v,vnew:       8.31 MB

     Dynamical RAM for               rhoin:       2.77 MB

     Dynamical RAM for            rho*nmix:      12.31 MB

     Dynamical RAM for           G-vectors:       3.02 MB

     Dynamical RAM for          h,s,v(r/c):       1.34 MB

     Dynamical RAM for          <psi|beta>:       0.27 MB

     Dynamical RAM for                 psi:       8.23 MB

     Dynamical RAM for                hpsi:       8.23 MB

     Dynamical RAM for                spsi:       8.23 MB

     Dynamical RAM for      wfcinit/wfcrot:      16.22 MB

     Dynamical RAM for           addusdens:     436.19 MB

     Dynamical RAM for          addusforce:     453.64 MB

     Dynamical RAM for         addusstress:     447.73 MB

     Estimated static dynamical RAM per process >      57.16 MB

     Estimated max dynamical RAM per process >     523.11 MB

     Check: negative core charge=   -0.000069

     Initial potential from superposition of free atoms

     starting charge     201.9760, renormalised to     202.0000

     negative rho (up, down):  2.716E-03 0.000E+00
     Starting wfcs are  222 randomized atomic wfcs
     Checking if some PAW data can be deallocated... 

     total cpu time spent up to now is        7.8 secs

     Self-consistent Calculation

     iteration #  1     ecut=    30.00 Ry     beta= 0.70
     Davidson diagonalization with overlap

---- Real-time Memory Report at c_bands before calling an iterative solver
           745 MiB given to the printing process from OS
             0 MiB allocation reported by mallinfo(arena+hblkhd)
        113396 MiB available memory on the node where the printing process lives
------------------
     ethr =  1.00E-02,  avg # of iterations =  2.0

     negative rho (up, down):  7.564E-03 0.000E+00

     total cpu time spent up to now is       10.6 secs

     total energy              =   -4131.00570729 Ry
     estimated scf accuracy    <      53.53144413 Ry

     iteration #  2     ecut=    30.00 Ry     beta= 0.70
     Davidson diagonalization with overlap

---- Real-time Memory Report at c_bands before calling an iterative solver
           859 MiB given to the printing process from OS
             0 MiB allocation reported by mallinfo(arena+hblkhd)
        113384 MiB available memory on the node where the printing process lives
------------------
     ethr =  1.00E-02,  avg # of iterations =  6.0

     negative rho (up, down):  6.287E-03 0.000E+00

     total cpu time spent up to now is       13.7 secs

     total energy              =   -4186.21710279 Ry
     estimated scf accuracy    <     538.84110032 Ry

     iteration #  3     ecut=    30.00 Ry     beta= 0.70
     Davidson diagonalization with overlap

---- Real-time Memory Report at c_bands before calling an iterative solver
           863 MiB given to the printing process from OS
             0 MiB allocation reported by mallinfo(arena+hblkhd)
        113381 MiB available memory on the node where the printing process lives
------------------
     ethr =  1.00E-02,  avg # of iterations =  4.0

     negative rho (up, down):  7.528E-03 0.000E+00

     total cpu time spent up to now is       17.0 secs

     total energy              =   -4190.73674745 Ry
     estimated scf accuracy    <     106.43871114 Ry

     iteration #  4     ecut=    30.00 Ry     beta= 0.70
     Davidson diagonalization with overlap

---- Real-time Memory Report at c_bands before calling an iterative solver
           863 MiB given to the printing process from OS
             0 MiB allocation reported by mallinfo(arena+hblkhd)
        113349 MiB available memory on the node where the printing process lives
------------------
     ethr =  1.00E-02,  avg # of iterations =  4.0

     negative rho (up, down):  7.548E-03 0.000E+00

     total cpu time spent up to now is       19.8 secs

     total energy              =   -4190.08837871 Ry
     estimated scf accuracy    <     133.15215178 Ry

     iteration #  5     ecut=    30.00 Ry     beta= 0.70
     Davidson diagonalization with overlap

---- Real-time Memory Report at c_bands before calling an iterative solver
           863 MiB given to the printing process from OS
             0 MiB allocation reported by mallinfo(arena+hblkhd)
        113350 MiB available memory on the node where the printing process lives
------------------
     ethr =  1.00E-02,  avg # of iterations =  3.0

     negative rho (up, down):  6.422E-03 0.000E+00

     total cpu time spent up to now is       22.5 secs

     total energy              =   -4181.42469057 Ry
     estimated scf accuracy    <     118.78084527 Ry

     iteration #  6     ecut=    30.00 Ry     beta= 0.70
     Davidson diagonalization with overlap

---- Real-time Memory Report at c_bands before calling an iterative solver
           863 MiB given to the printing process from OS
             0 MiB allocation reported by mallinfo(arena+hblkhd)
        113354 MiB available memory on the node where the printing process lives
------------------
     ethr =  1.00E-02,  avg # of iterations =  4.0

     negative rho (up, down):  5.441E-03 0.000E+00

     total cpu time spent up to now is       25.2 secs

     total energy              =   -4183.05671180 Ry
     estimated scf accuracy    <     106.38092577 Ry

     iteration #  7     ecut=    30.00 Ry     beta= 0.70
     Davidson diagonalization with overlap

---- Real-time Memory Report at c_bands before calling an iterative solver
           863 MiB given to the printing process from OS
             0 MiB allocation reported by mallinfo(arena+hblkhd)
        113356 MiB available memory on the node where the printing process lives
------------------
     ethr =  1.00E-02,  avg # of iterations =  3.0

     negative rho (up, down):  5.068E-03 0.000E+00

     total cpu time spent up to now is       28.0 secs

     total energy              =   -4183.38217148 Ry
     estimated scf accuracy    <      82.64269930 Ry

     iteration #  8     ecut=    30.00 Ry     beta= 0.70
     Davidson diagonalization with overlap

---- Real-time Memory Report at c_bands before calling an iterative solver
           863 MiB given to the printing process from OS
             0 MiB allocation reported by mallinfo(arena+hblkhd)
        113357 MiB available memory on the node where the printing process lives
------------------
     ethr =  1.00E-02,  avg # of iterations =  2.0

     negative rho (up, down):  5.200E-03 0.000E+00

     total cpu time spent up to now is       30.8 secs

     total energy              =   -4185.93034784 Ry
     estimated scf accuracy    <     132.88451673 Ry

     iteration #  9     ecut=    30.00 Ry     beta= 0.70
     Davidson diagonalization with overlap

---- Real-time Memory Report at c_bands before calling an iterative solver
           863 MiB given to the printing process from OS
             0 MiB allocation reported by mallinfo(arena+hblkhd)
        113359 MiB available memory on the node where the printing process lives
------------------
     ethr =  1.00E-02,  avg # of iterations =  1.0

     negative rho (up, down):  5.261E-03 0.000E+00

     total cpu time spent up to now is       33.6 secs

     total energy              =   -4186.48177860 Ry
     estimated scf accuracy    <      87.22328209 Ry

     iteration # 10     ecut=    30.00 Ry     beta= 0.70
     Davidson diagonalization with overlap

---- Real-time Memory Report at c_bands before calling an iterative solver
           863 MiB given to the printing process from OS
             0 MiB allocation reported by mallinfo(arena+hblkhd)
        113356 MiB available memory on the node where the printing process lives
------------------
     ethr =  1.00E-02,  avg # of iterations =  1.0

     negative rho (up, down):  4.359E-03 0.000E+00

     total cpu time spent up to now is       36.3 secs

     total energy              =   -4165.72317275 Ry
     estimated scf accuracy    <      80.55090392 Ry

     iteration # 11     ecut=    30.00 Ry     beta= 0.70
     Davidson diagonalization with overlap

---- Real-time Memory Report at c_bands before calling an iterative solver
           863 MiB given to the printing process from OS
             0 MiB allocation reported by mallinfo(arena+hblkhd)
        113360 MiB available memory on the node where the printing process lives
------------------
     ethr =  1.00E-02,  avg # of iterations =  6.0

     negative rho (up, down):  3.763E-03 0.000E+00

     total cpu time spent up to now is       39.4 secs

     total energy              =   -4187.51834367 Ry
     estimated scf accuracy    <     213.64000675 Ry

     iteration # 12     ecut=    30.00 Ry     beta= 0.70
     Davidson diagonalization with overlap

---- Real-time Memory Report at c_bands before calling an iterative solver
           863 MiB given to the printing process from OS
             0 MiB allocation reported by mallinfo(arena+hblkhd)
        113358 MiB available memory on the node where the printing process lives
------------------
     ethr =  1.00E-02,  avg # of iterations =  2.0

     negative rho (up, down):  3.418E-03 0.000E+00

     total cpu time spent up to now is       42.1 secs

     total energy              =   -4183.88493333 Ry
     estimated scf accuracy    <     107.43975493 Ry

     iteration # 13     ecut=    30.00 Ry     beta= 0.70
     Davidson diagonalization with overlap

---- Real-time Memory Report at c_bands before calling an iterative solver
           863 MiB given to the printing process from OS
             0 MiB allocation reported by mallinfo(arena+hblkhd)
        113358 MiB available memory on the node where the printing process lives
------------------
     ethr =  1.00E-02,  avg # of iterations =  3.0

     negative rho (up, down):  3.344E-03 0.000E+00

     total cpu time spent up to now is       45.1 secs

     total energy              =   -4183.43098664 Ry
     estimated scf accuracy    <      90.33449661 Ry

     iteration # 14     ecut=    30.00 Ry     beta= 0.70
     Davidson diagonalization with overlap

---- Real-time Memory Report at c_bands before calling an iterative solver
           863 MiB given to the printing process from OS
             0 MiB allocation reported by mallinfo(arena+hblkhd)
        113355 MiB available memory on the node where the printing process lives
------------------
     ethr =  1.00E-02,  avg # of iterations =  1.0

     negative rho (up, down):  3.423E-03 0.000E+00

     total cpu time spent up to now is       47.9 secs

     total energy              =   -4182.85048669 Ry
     estimated scf accuracy    <      89.86113831 Ry

     iteration # 15     ecut=    30.00 Ry     beta= 0.70
     Davidson diagonalization with overlap

---- Real-time Memory Report at c_bands before calling an iterative solver
           863 MiB given to the printing process from OS
             0 MiB allocation reported by mallinfo(arena+hblkhd)
        113352 MiB available memory on the node where the printing process lives
------------------
     ethr =  1.00E-02,  avg # of iterations =  1.0
     Minimization algorithm failed to find Fermi energy: reverting to bisection
     Possible cause: smearing is larger than the electronic band-gap.

     negative rho (up, down):  3.450E-03 0.000E+00

     total cpu time spent up to now is       50.8 secs

     total energy              =   -4182.74170044 Ry
     estimated scf accuracy    <      57.15356759 Ry

     iteration # 16     ecut=    30.00 Ry     beta= 0.70
     Davidson diagonalization with overlap

---- Real-time Memory Report at c_bands before calling an iterative solver
           863 MiB given to the printing process from OS
             0 MiB allocation reported by mallinfo(arena+hblkhd)
        113357 MiB available memory on the node where the printing process lives
------------------
     ethr =  1.00E-02,  avg # of iterations =  1.0

     negative rho (up, down):  3.527E-03 0.000E+00

     total cpu time spent up to now is       53.7 secs

     total energy              =   -4181.74362144 Ry
     estimated scf accuracy    <      24.28402939 Ry

     iteration # 17     ecut=    30.00 Ry     beta= 0.70
     Davidson diagonalization with overlap

---- Real-time Memory Report at c_bands before calling an iterative solver
           863 MiB given to the printing process from OS
             0 MiB allocation reported by mallinfo(arena+hblkhd)
        113410 MiB available memory on the node where the printing process lives
------------------
     ethr =  1.00E-02,  avg # of iterations =  2.0

     negative rho (up, down):  3.637E-03 0.000E+00

     total cpu time spent up to now is       56.6 secs

     total energy              =   -4182.68921285 Ry
     estimated scf accuracy    <      26.36266135 Ry

     iteration # 18     ecut=    30.00 Ry     beta= 0.70
     Davidson diagonalization with overlap

---- Real-time Memory Report at c_bands before calling an iterative solver
           864 MiB given to the printing process from OS
             0 MiB allocation reported by mallinfo(arena+hblkhd)
        113408 MiB available memory on the node where the printing process lives
------------------
     ethr =  1.00E-02,  avg # of iterations =  1.0

     negative rho (up, down):  3.743E-03 0.000E+00

     total cpu time spent up to now is       59.5 secs

     total energy              =   -4182.64208753 Ry
     estimated scf accuracy    <     117.81580708 Ry

     iteration # 19     ecut=    30.00 Ry     beta= 0.70
     Davidson diagonalization with overlap

---- Real-time Memory Report at c_bands before calling an iterative solver
           864 MiB given to the printing process from OS
             0 MiB allocation reported by mallinfo(arena+hblkhd)
        113411 MiB available memory on the node where the printing process lives
------------------
     ethr =  1.00E-02,  avg # of iterations =  1.0

     negative rho (up, down):  4.002E-03 0.000E+00

     total cpu time spent up to now is       62.2 secs

     total energy              =   -4182.27286498 Ry
     estimated scf accuracy    <      20.51722651 Ry

     iteration # 20     ecut=    30.00 Ry     beta= 0.70
     Davidson diagonalization with overlap

---- Real-time Memory Report at c_bands before calling an iterative solver
           864 MiB given to the printing process from OS
             0 MiB allocation reported by mallinfo(arena+hblkhd)
        113410 MiB available memory on the node where the printing process lives
------------------
     ethr =  1.00E-02,  avg # of iterations =  6.0

     negative rho (up, down):  4.192E-03 0.000E+00

     total cpu time spent up to now is       65.3 secs

     total energy              =   -4179.96155098 Ry
     estimated scf accuracy    <     173.88494183 Ry

     iteration # 21     ecut=    30.00 Ry     beta= 0.70
     Davidson diagonalization with overlap

---- Real-time Memory Report at c_bands before calling an iterative solver
           864 MiB given to the printing process from OS
             0 MiB allocation reported by mallinfo(arena+hblkhd)
        113413 MiB available memory on the node where the printing process lives
------------------
     ethr =  1.00E-02,  avg # of iterations =  3.0

     negative rho (up, down):  4.102E-03 0.000E+00

     total cpu time spent up to now is       68.1 secs

     total energy              =   -4182.08505174 Ry
     estimated scf accuracy    <      41.36297171 Ry

     iteration # 22     ecut=    30.00 Ry     beta= 0.70
     Davidson diagonalization with overlap

---- Real-time Memory Report at c_bands before calling an iterative solver
           864 MiB given to the printing process from OS
             0 MiB allocation reported by mallinfo(arena+hblkhd)
        113413 MiB available memory on the node where the printing process lives
------------------
     ethr =  1.00E-02,  avg # of iterations =  3.0

     negative rho (up, down):  3.490E-03 0.000E+00

     total cpu time spent up to now is       71.5 secs

     total energy              =   -4182.04149934 Ry
     estimated scf accuracy    <      41.57691736 Ry

     iteration # 23     ecut=    30.00 Ry     beta= 0.70
     Davidson diagonalization with overlap

---- Real-time Memory Report at c_bands before calling an iterative solver
           865 MiB given to the printing process from OS
             0 MiB allocation reported by mallinfo(arena+hblkhd)
        113372 MiB available memory on the node where the printing process lives
------------------
     ethr =  1.00E-02,  avg # of iterations =  2.0

     negative rho (up, down):  3.530E-03 0.000E+00

     total cpu time spent up to now is       75.1 secs

     total energy              =   -4182.74021307 Ry
     estimated scf accuracy    <      34.52140996 Ry

     iteration # 24     ecut=    30.00 Ry     beta= 0.70
     Davidson diagonalization with overlap

---- Real-time Memory Report at c_bands before calling an iterative solver
           865 MiB given to the printing process from OS
             0 MiB allocation reported by mallinfo(arena+hblkhd)
        113377 MiB available memory on the node where the printing process lives
------------------
     ethr =  1.00E-02,  avg # of iterations =  1.0

     negative rho (up, down):  3.601E-03 0.000E+00

     total cpu time spent up to now is       77.8 secs

     total energy              =   -4182.67262906 Ry
     estimated scf accuracy    <      13.60641126 Ry

     iteration # 25     ecut=    30.00 Ry     beta= 0.70
     Davidson diagonalization with overlap

---- Real-time Memory Report at c_bands before calling an iterative solver
           865 MiB given to the printing process from OS
             0 MiB allocation reported by mallinfo(arena+hblkhd)
        113380 MiB available memory on the node where the printing process lives
------------------
     ethr =  6.74E-03,  avg # of iterations =  1.0

     negative rho (up, down):  3.503E-03 0.000E+00

     total cpu time spent up to now is       81.0 secs

     total energy              =   -4179.82111101 Ry
     estimated scf accuracy    <      35.78809555 Ry

     iteration # 26     ecut=    30.00 Ry     beta= 0.70
     Davidson diagonalization with overlap

---- Real-time Memory Report at c_bands before calling an iterative solver
           865 MiB given to the printing process from OS
             0 MiB allocation reported by mallinfo(arena+hblkhd)
        113378 MiB available memory on the node where the printing process lives
------------------
     ethr =  6.74E-03,  avg # of iterations =  5.0

     negative rho (up, down):  3.442E-03 0.000E+00

     total cpu time spent up to now is       83.8 secs

     total energy              =   -4182.33948895 Ry
     estimated scf accuracy    <     146.89612439 Ry

     iteration # 27     ecut=    30.00 Ry     beta= 0.70
     Davidson diagonalization with overlap

---- Real-time Memory Report at c_bands before calling an iterative solver
           865 MiB given to the printing process from OS
             0 MiB allocation reported by mallinfo(arena+hblkhd)
        113381 MiB available memory on the node where the printing process lives
------------------
     ethr =  6.74E-03,  avg # of iterations =  3.0

     negative rho (up, down):  3.682E-03 0.000E+00

     total cpu time spent up to now is       86.6 secs

     total energy              =   -4180.82262410 Ry
     estimated scf accuracy    <      97.47023675 Ry

     iteration # 28     ecut=    30.00 Ry     beta= 0.70
     Davidson diagonalization with overlap

---- Real-time Memory Report at c_bands before calling an iterative solver
           865 MiB given to the printing process from OS
             0 MiB allocation reported by mallinfo(arena+hblkhd)
        113377 MiB available memory on the node where the printing process lives
------------------
     ethr =  6.74E-03,  avg # of iterations =  5.0

     negative rho (up, down):  3.692E-03 0.000E+00

     total cpu time spent up to now is       89.5 secs

     total energy              =   -4182.21647123 Ry
     estimated scf accuracy    <     109.80496153 Ry

     iteration # 29     ecut=    30.00 Ry     beta= 0.70
     Davidson diagonalization with overlap

---- Real-time Memory Report at c_bands before calling an iterative solver
           865 MiB given to the printing process from OS
             0 MiB allocation reported by mallinfo(arena+hblkhd)
        113377 MiB available memory on the node where the printing process lives
------------------
     ethr =  6.74E-03,  avg # of iterations =  3.0

     negative rho (up, down):  3.517E-03 0.000E+00

     total cpu time spent up to now is       92.3 secs

     total energy              =   -4181.69032510 Ry
     estimated scf accuracy    <      64.59769170 Ry

     iteration # 30     ecut=    30.00 Ry     beta= 0.70
     Davidson diagonalization with overlap

---- Real-time Memory Report at c_bands before calling an iterative solver
           865 MiB given to the printing process from OS
             0 MiB allocation reported by mallinfo(arena+hblkhd)
        113380 MiB available memory on the node where the printing process lives
------------------
     ethr =  6.74E-03,  avg # of iterations =  2.0

     negative rho (up, down):  3.674E-03 0.000E+00

     total cpu time spent up to now is       95.0 secs

     total energy              =   -4181.36990833 Ry
     estimated scf accuracy    <      21.93466737 Ry

     iteration # 31     ecut=    30.00 Ry     beta= 0.70
     Davidson diagonalization with overlap

---- Real-time Memory Report at c_bands before calling an iterative solver
           865 MiB given to the printing process from OS
             0 MiB allocation reported by mallinfo(arena+hblkhd)
        113379 MiB available memory on the node where the printing process lives
------------------
     ethr =  6.74E-03,  avg # of iterations =  2.0

     negative rho (up, down):  3.698E-03 0.000E+00

     total cpu time spent up to now is       97.7 secs

     total energy              =   -4182.02318414 Ry
     estimated scf accuracy    <      64.71828739 Ry

     iteration # 32     ecut=    30.00 Ry     beta= 0.70
     Davidson diagonalization with overlap

---- Real-time Memory Report at c_bands before calling an iterative solver
           865 MiB given to the printing process from OS
             0 MiB allocation reported by mallinfo(arena+hblkhd)
        113381 MiB available memory on the node where the printing process lives
------------------
     ethr =  6.74E-03,  avg # of iterations =  2.0

     negative rho (up, down):  3.444E-03 0.000E+00

     total cpu time spent up to now is      100.5 secs

     total energy              =   -4182.39321058 Ry
     estimated scf accuracy    <      11.30060041 Ry

     iteration # 33     ecut=    30.00 Ry     beta= 0.70
     Davidson diagonalization with overlap

---- Real-time Memory Report at c_bands before calling an iterative solver
           865 MiB given to the printing process from OS
             0 MiB allocation reported by mallinfo(arena+hblkhd)
        113379 MiB available memory on the node where the printing process lives
------------------
     ethr =  5.59E-03,  avg # of iterations =  2.0

     negative rho (up, down):  3.500E-03 0.000E+00

     total cpu time spent up to now is      103.2 secs

     total energy              =   -4182.31908370 Ry
     estimated scf accuracy    <     100.94629858 Ry

     iteration # 34     ecut=    30.00 Ry     beta= 0.70
     Davidson diagonalization with overlap

---- Real-time Memory Report at c_bands before calling an iterative solver
           865 MiB given to the printing process from OS
             0 MiB allocation reported by mallinfo(arena+hblkhd)
        113380 MiB available memory on the node where the printing process lives
------------------
     ethr =  5.59E-03,  avg # of iterations =  2.0

     negative rho (up, down):  3.143E-03 0.000E+00

     total cpu time spent up to now is      105.8 secs

     total energy              =   -4180.95062807 Ry
     estimated scf accuracy    <      20.11662176 Ry

     iteration # 35     ecut=    30.00 Ry     beta= 0.70
     Davidson diagonalization with overlap

---- Real-time Memory Report at c_bands before calling an iterative solver
           865 MiB given to the printing process from OS
             0 MiB allocation reported by mallinfo(arena+hblkhd)
        113380 MiB available memory on the node where the printing process lives
------------------
     ethr =  5.59E-03,  avg # of iterations =  6.0

     negative rho (up, down):  3.531E-03 0.000E+00

     total cpu time spent up to now is      108.7 secs

     total energy              =   -4180.10103057 Ry
     estimated scf accuracy    <     206.11912578 Ry

     iteration # 36     ecut=    30.00 Ry     beta= 0.70
     Davidson diagonalization with overlap

---- Real-time Memory Report at c_bands before calling an iterative solver
           865 MiB given to the printing process from OS
             0 MiB allocation reported by mallinfo(arena+hblkhd)
        113382 MiB available memory on the node where the printing process lives
------------------
     ethr =  5.59E-03,  avg # of iterations =  3.0

     negative rho (up, down):  3.431E-03 0.000E+00

     total cpu time spent up to now is      111.4 secs

     total energy              =   -4184.06900631 Ry
     estimated scf accuracy    <      98.47763905 Ry

     iteration # 37     ecut=    30.00 Ry     beta= 0.70
     Davidson diagonalization with overlap

---- Real-time Memory Report at c_bands before calling an iterative solver
           865 MiB given to the printing process from OS
             0 MiB allocation reported by mallinfo(arena+hblkhd)
        113385 MiB available memory on the node where the printing process lives
------------------
     ethr =  5.59E-03,  avg # of iterations =  1.0

     negative rho (up, down):  4.212E-03 0.000E+00

     total cpu time spent up to now is      114.0 secs

     total energy              =   -4179.03826582 Ry
     estimated scf accuracy    <     109.45089432 Ry

     iteration # 38     ecut=    30.00 Ry     beta= 0.70
     Davidson diagonalization with overlap

---- Real-time Memory Report at c_bands before calling an iterative solver
           865 MiB given to the printing process from OS
             0 MiB allocation reported by mallinfo(arena+hblkhd)
        113384 MiB available memory on the node where the printing process lives
------------------
     ethr =  5.59E-03,  avg # of iterations =  7.0

     negative rho (up, down):  3.280E-03 0.000E+00

     total cpu time spent up to now is      116.9 secs

     total energy              =   -4178.99919403 Ry
     estimated scf accuracy    <     319.21522834 Ry

     iteration # 39     ecut=    30.00 Ry     beta= 0.70
     Davidson diagonalization with overlap

---- Real-time Memory Report at c_bands before calling an iterative solver
           865 MiB given to the printing process from OS
             0 MiB allocation reported by mallinfo(arena+hblkhd)
        113384 MiB available memory on the node where the printing process lives
------------------
     ethr =  5.59E-03,  avg # of iterations =  3.0

     negative rho (up, down):  3.811E-03 0.000E+00

     total cpu time spent up to now is      119.7 secs

     total energy              =   -4183.07907181 Ry
     estimated scf accuracy    <     160.96537999 Ry

     iteration # 40     ecut=    30.00 Ry     beta= 0.70
     Davidson diagonalization with overlap

---- Real-time Memory Report at c_bands before calling an iterative solver
           865 MiB given to the printing process from OS
             0 MiB allocation reported by mallinfo(arena+hblkhd)
        113367 MiB available memory on the node where the printing process lives
------------------
     ethr =  5.59E-03,  avg # of iterations =  4.0

     negative rho (up, down):  3.436E-03 0.000E+00

     total cpu time spent up to now is      122.4 secs

     total energy              =   -4182.96058047 Ry
     estimated scf accuracy    <      33.37744348 Ry

     iteration # 41     ecut=    30.00 Ry     beta= 0.70
     Davidson diagonalization with overlap

---- Real-time Memory Report at c_bands before calling an iterative solver
           865 MiB given to the printing process from OS
             0 MiB allocation reported by mallinfo(arena+hblkhd)
        113367 MiB available memory on the node where the printing process lives
------------------
     ethr =  5.59E-03,  avg # of iterations =  2.0

     negative rho (up, down):  3.991E-03 0.000E+00

     total cpu time spent up to now is      125.1 secs

     total energy              =   -4181.24200206 Ry
     estimated scf accuracy    <      37.68080299 Ry

     iteration # 42     ecut=    30.00 Ry     beta= 0.70
     Davidson diagonalization with overlap

---- Real-time Memory Report at c_bands before calling an iterative solver
           865 MiB given to the printing process from OS
             0 MiB allocation reported by mallinfo(arena+hblkhd)
        113367 MiB available memory on the node where the printing process lives
------------------
     ethr =  5.59E-03,  avg # of iterations =  7.0

     negative rho (up, down):  3.579E-03 0.000E+00

     total cpu time spent up to now is      127.9 secs

     total energy              =   -4179.22224838 Ry
     estimated scf accuracy    <      61.60844900 Ry

     iteration # 43     ecut=    30.00 Ry     beta= 0.70
     Davidson diagonalization with overlap

---- Real-time Memory Report at c_bands before calling an iterative solver
           865 MiB given to the printing process from OS
             0 MiB allocation reported by mallinfo(arena+hblkhd)
        113365 MiB available memory on the node where the printing process lives
------------------
     ethr =  5.59E-03,  avg # of iterations = 11.0

     negative rho (up, down):  4.055E-03 0.000E+00

     total cpu time spent up to now is      130.9 secs

     total energy              =   -4181.31917012 Ry
     estimated scf accuracy    <     261.67043636 Ry

     iteration # 44     ecut=    30.00 Ry     beta= 0.70
     Davidson diagonalization with overlap

---- Real-time Memory Report at c_bands before calling an iterative solver
           865 MiB given to the printing process from OS
             0 MiB allocation reported by mallinfo(arena+hblkhd)
        113364 MiB available memory on the node where the printing process lives
------------------
     ethr =  5.59E-03,  avg # of iterations =  4.0

     negative rho (up, down):  4.287E-03 0.000E+00

     total cpu time spent up to now is      133.8 secs

     total energy              =   -4182.08169683 Ry
     estimated scf accuracy    <      85.05749496 Ry

     iteration # 45     ecut=    30.00 Ry     beta= 0.70
     Davidson diagonalization with overlap

---- Real-time Memory Report at c_bands before calling an iterative solver
           865 MiB given to the printing process from OS
             0 MiB allocation reported by mallinfo(arena+hblkhd)
        113365 MiB available memory on the node where the printing process lives
------------------
     ethr =  5.59E-03,  avg # of iterations =  3.0

     negative rho (up, down):  4.105E-03 0.000E+00

     total cpu time spent up to now is      136.5 secs

     total energy              =   -4182.25690883 Ry
     estimated scf accuracy    <      84.77322191 Ry

     iteration # 46     ecut=    30.00 Ry     beta= 0.70
     Davidson diagonalization with overlap

---- Real-time Memory Report at c_bands before calling an iterative solver
           865 MiB given to the printing process from OS
             0 MiB allocation reported by mallinfo(arena+hblkhd)
        113366 MiB available memory on the node where the printing process lives
------------------
     ethr =  5.59E-03,  avg # of iterations =  2.0

     negative rho (up, down):  4.043E-03 0.000E+00

     total cpu time spent up to now is      139.2 secs

     total energy              =   -4180.94540577 Ry
     estimated scf accuracy    <      86.26843415 Ry

     iteration # 47     ecut=    30.00 Ry     beta= 0.70
     Davidson diagonalization with overlap

---- Real-time Memory Report at c_bands before calling an iterative solver
           865 MiB given to the printing process from OS
             0 MiB allocation reported by mallinfo(arena+hblkhd)
        113367 MiB available memory on the node where the printing process lives
------------------
     ethr =  5.59E-03,  avg # of iterations =  4.0

     negative rho (up, down):  3.112E-03 0.000E+00

     total cpu time spent up to now is      142.0 secs

     total energy              =   -4176.46175935 Ry
     estimated scf accuracy    <     219.67246860 Ry

     iteration # 48     ecut=    30.00 Ry     beta= 0.70
     Davidson diagonalization with overlap

---- Real-time Memory Report at c_bands before calling an iterative solver
           865 MiB given to the printing process from OS
             0 MiB allocation reported by mallinfo(arena+hblkhd)
        113364 MiB available memory on the node where the printing process lives
------------------
     ethr =  5.59E-03,  avg # of iterations =  2.0

     negative rho (up, down):  3.102E-03 0.000E+00

     total cpu time spent up to now is      144.7 secs

     total energy              =   -4182.82258267 Ry
     estimated scf accuracy    <      85.67551522 Ry

     iteration # 49     ecut=    30.00 Ry     beta= 0.70
     Davidson diagonalization with overlap

---- Real-time Memory Report at c_bands before calling an iterative solver
           865 MiB given to the printing process from OS
             0 MiB allocation reported by mallinfo(arena+hblkhd)
        113364 MiB available memory on the node where the printing process lives
------------------
     ethr =  5.59E-03,  avg # of iterations =  1.0

     negative rho (up, down):  3.540E-03 0.000E+00

     total cpu time spent up to now is      147.4 secs

     total energy              =   -4181.76915760 Ry
     estimated scf accuracy    <     118.85463753 Ry

     iteration # 50     ecut=    30.00 Ry     beta= 0.70
     Davidson diagonalization with overlap

---- Real-time Memory Report at c_bands before calling an iterative solver
           865 MiB given to the printing process from OS
             0 MiB allocation reported by mallinfo(arena+hblkhd)
        113363 MiB available memory on the node where the printing process lives
------------------
     ethr =  5.59E-03,  avg # of iterations =  3.0

     negative rho (up, down):  3.423E-03 0.000E+00

     total cpu time spent up to now is      150.1 secs

     total energy              =   -4178.51711683 Ry
     estimated scf accuracy    <      94.14157913 Ry

     iteration # 51     ecut=    30.00 Ry     beta= 0.70
     Davidson diagonalization with overlap

---- Real-time Memory Report at c_bands before calling an iterative solver
           865 MiB given to the printing process from OS
             0 MiB allocation reported by mallinfo(arena+hblkhd)
        113363 MiB available memory on the node where the printing process lives
------------------
     ethr =  5.59E-03,  avg # of iterations =  8.0

     negative rho (up, down):  3.943E-03 0.000E+00

     total cpu time spent up to now is      153.1 secs

     total energy              =   -4179.22592582 Ry
     estimated scf accuracy    <     288.47600478 Ry

     iteration # 52     ecut=    30.00 Ry     beta= 0.70
     Davidson diagonalization with overlap

---- Real-time Memory Report at c_bands before calling an iterative solver
           865 MiB given to the printing process from OS
             0 MiB allocation reported by mallinfo(arena+hblkhd)
        113362 MiB available memory on the node where the printing process lives
------------------
     ethr =  5.59E-03,  avg # of iterations =  8.0

     negative rho (up, down):  3.014E-03 0.000E+00

     total cpu time spent up to now is      156.0 secs

     total energy              =   -4179.57791216 Ry
     estimated scf accuracy    <     114.13719554 Ry

     iteration # 53     ecut=    30.00 Ry     beta= 0.70
     Davidson diagonalization with overlap

---- Real-time Memory Report at c_bands before calling an iterative solver
           865 MiB given to the printing process from OS
             0 MiB allocation reported by mallinfo(arena+hblkhd)
        113362 MiB available memory on the node where the printing process lives
------------------
     ethr =  5.59E-03,  avg # of iterations =  3.0

     negative rho (up, down):  3.338E-03 0.000E+00

     total cpu time spent up to now is      158.8 secs

     total energy              =   -4182.25436563 Ry
     estimated scf accuracy    <     132.41472950 Ry

     iteration # 54     ecut=    30.00 Ry     beta= 0.70
     Davidson diagonalization with overlap

---- Real-time Memory Report at c_bands before calling an iterative solver
           865 MiB given to the printing process from OS
             0 MiB allocation reported by mallinfo(arena+hblkhd)
        113362 MiB available memory on the node where the printing process lives
------------------
     ethr =  5.59E-03,  avg # of iterations =  6.0

     negative rho (up, down):  3.523E-03 0.000E+00

     total cpu time spent up to now is      162.9 secs

     total energy              =   -4180.72037612 Ry
     estimated scf accuracy    <     153.63269816 Ry

     iteration # 55     ecut=    30.00 Ry     beta= 0.70
     Davidson diagonalization with overlap

---- Real-time Memory Report at c_bands before calling an iterative solver
           865 MiB given to the printing process from OS
             0 MiB allocation reported by mallinfo(arena+hblkhd)
        113353 MiB available memory on the node where the printing process lives
------------------
     ethr =  5.59E-03,  avg # of iterations =  4.0

     negative rho (up, down):  4.279E-03 0.000E+00

     total cpu time spent up to now is      165.7 secs

     total energy              =   -4180.49096623 Ry
     estimated scf accuracy    <     177.57154774 Ry

     iteration # 56     ecut=    30.00 Ry     beta= 0.70
     Davidson diagonalization with overlap

---- Real-time Memory Report at c_bands before calling an iterative solver
           865 MiB given to the printing process from OS
             0 MiB allocation reported by mallinfo(arena+hblkhd)
        113374 MiB available memory on the node where the printing process lives
------------------
     ethr =  5.59E-03,  avg # of iterations =  2.0

     negative rho (up, down):  3.716E-03 0.000E+00

     total cpu time spent up to now is      168.4 secs

     total energy              =   -4182.46865022 Ry
     estimated scf accuracy    <      74.33254034 Ry

     iteration # 57     ecut=    30.00 Ry     beta= 0.70
     Davidson diagonalization with overlap

---- Real-time Memory Report at c_bands before calling an iterative solver
           865 MiB given to the printing process from OS
             0 MiB allocation reported by mallinfo(arena+hblkhd)
        113377 MiB available memory on the node where the printing process lives
------------------
     ethr =  5.59E-03,  avg # of iterations =  3.0

     negative rho (up, down):  3.358E-03 0.000E+00

     total cpu time spent up to now is      171.1 secs

     total energy              =   -4181.52096061 Ry
     estimated scf accuracy    <      68.14574693 Ry

     iteration # 58     ecut=    30.00 Ry     beta= 0.70
     Davidson diagonalization with overlap

---- Real-time Memory Report at c_bands before calling an iterative solver
           865 MiB given to the printing process from OS
             0 MiB allocation reported by mallinfo(arena+hblkhd)
        113379 MiB available memory on the node where the printing process lives
------------------
     ethr =  5.59E-03,  avg # of iterations =  2.0

     negative rho (up, down):  3.378E-03 0.000E+00

     total cpu time spent up to now is      173.8 secs

     WARNING: integrated charge=   202.00121568, expected=   202.00000000

     total energy              =   -4182.63489792 Ry
     estimated scf accuracy    <      63.45601972 Ry

     iteration # 59     ecut=    30.00 Ry     beta= 0.70
     Davidson diagonalization with overlap

---- Real-time Memory Report at c_bands before calling an iterative solver
           865 MiB given to the printing process from OS
             0 MiB allocation reported by mallinfo(arena+hblkhd)
        113379 MiB available memory on the node where the printing process lives
------------------
     ethr =  5.59E-03,  avg # of iterations =  2.0

     negative rho (up, down):  3.641E-03 0.000E+00

     total cpu time spent up to now is      176.5 secs

     WARNING: integrated charge=   202.00144643, expected=   202.00000000

     total energy              =   -4181.66907442 Ry
     estimated scf accuracy    <     152.90656944 Ry

     iteration # 60     ecut=    30.00 Ry     beta= 0.70
     Davidson diagonalization with overlap

---- Real-time Memory Report at c_bands before calling an iterative solver
           865 MiB given to the printing process from OS
             0 MiB allocation reported by mallinfo(arena+hblkhd)
        113380 MiB available memory on the node where the printing process lives
------------------
     ethr =  5.59E-03,  avg # of iterations =  3.0

     negative rho (up, down):  4.301E-03 0.000E+00

     total cpu time spent up to now is      179.2 secs

     WARNING: integrated charge=   202.00178615, expected=   202.00000000

     total energy              =   -4180.94282260 Ry
     estimated scf accuracy    <     168.48555379 Ry

     iteration # 61     ecut=    30.00 Ry     beta= 0.70
     Davidson diagonalization with overlap

---- Real-time Memory Report at c_bands before calling an iterative solver
           865 MiB given to the printing process from OS
             0 MiB allocation reported by mallinfo(arena+hblkhd)
        113381 MiB available memory on the node where the printing process lives
------------------
     ethr =  5.59E-03,  avg # of iterations =  4.0

     negative rho (up, down):  3.905E-03 0.000E+00

     total cpu time spent up to now is      182.0 secs

     WARNING: integrated charge=   202.00207420, expected=   202.00000000

     total energy              =   -4182.20803545 Ry
     estimated scf accuracy    <     121.85335975 Ry

     iteration # 62     ecut=    30.00 Ry     beta= 0.70
     Davidson diagonalization with overlap

---- Real-time Memory Report at c_bands before calling an iterative solver
           865 MiB given to the printing process from OS
             0 MiB allocation reported by mallinfo(arena+hblkhd)
        113382 MiB available memory on the node where the printing process lives
------------------
     ethr =  5.59E-03,  avg # of iterations =  6.0

     negative rho (up, down):  3.378E-03 0.000E+00

     total cpu time spent up to now is      184.7 secs

     WARNING: integrated charge=   202.00132962, expected=   202.00000000

     total energy              =   -4181.89998501 Ry
     estimated scf accuracy    <      54.33036349 Ry

     iteration # 63     ecut=    30.00 Ry     beta= 0.70
     Davidson diagonalization with overlap

---- Real-time Memory Report at c_bands before calling an iterative solver
           865 MiB given to the printing process from OS
             0 MiB allocation reported by mallinfo(arena+hblkhd)
        113381 MiB available memory on the node where the printing process lives
------------------
     ethr =  5.59E-03,  avg # of iterations =  3.0

     negative rho (up, down):  3.518E-03 0.000E+00

     total cpu time spent up to now is      187.4 secs

     WARNING: integrated charge=   202.00171311, expected=   202.00000000

     total energy              =   -4182.16968518 Ry
     estimated scf accuracy    <      72.16833806 Ry

     iteration # 64     ecut=    30.00 Ry     beta= 0.70
     Davidson diagonalization with overlap

---- Real-time Memory Report at c_bands before calling an iterative solver
           865 MiB given to the printing process from OS
             0 MiB allocation reported by mallinfo(arena+hblkhd)
        113383 MiB available memory on the node where the printing process lives
------------------
     ethr =  5.59E-03,  avg # of iterations =  3.0

     negative rho (up, down):  3.577E-03 0.000E+00

     total cpu time spent up to now is      190.1 secs

     WARNING: integrated charge=   202.00166443, expected=   202.00000000

     total energy              =   -4181.92481609 Ry
     estimated scf accuracy    <     141.56836475 Ry

     iteration # 65     ecut=    30.00 Ry     beta= 0.70
     Davidson diagonalization with overlap

---- Real-time Memory Report at c_bands before calling an iterative solver
           865 MiB given to the printing process from OS
             0 MiB allocation reported by mallinfo(arena+hblkhd)
        113383 MiB available memory on the node where the printing process lives
------------------
     ethr =  5.59E-03,  avg # of iterations =  2.0

     negative rho (up, down):  3.528E-03 0.000E+00

     total cpu time spent up to now is      192.8 secs

     WARNING: integrated charge=   202.00195739, expected=   202.00000000

     total energy              =   -4182.89739640 Ry
     estimated scf accuracy    <      31.45673277 Ry

     iteration # 66     ecut=    30.00 Ry     beta= 0.70
     Davidson diagonalization with overlap

---- Real-time Memory Report at c_bands before calling an iterative solver
           865 MiB given to the printing process from OS
             0 MiB allocation reported by mallinfo(arena+hblkhd)
        113381 MiB available memory on the node where the printing process lives
------------------
     ethr =  5.59E-03,  avg # of iterations =  1.0

     negative rho (up, down):  3.860E-03 0.000E+00

     total cpu time spent up to now is      195.5 secs

     WARNING: integrated charge=   202.00098965, expected=   202.00000000

     total energy              =   -4181.96273276 Ry
     estimated scf accuracy    <      80.16774252 Ry

     iteration # 67     ecut=    30.00 Ry     beta= 0.70
     Davidson diagonalization with overlap

---- Real-time Memory Report at c_bands before calling an iterative solver
           865 MiB given to the printing process from OS
             0 MiB allocation reported by mallinfo(arena+hblkhd)
        113382 MiB available memory on the node where the printing process lives
------------------
     ethr =  5.59E-03,  avg # of iterations =  2.0

     negative rho (up, down):  3.802E-03 0.000E+00

     total cpu time spent up to now is      198.2 secs

     WARNING: integrated charge=   202.00048897, expected=   202.00000000

     total energy              =   -4178.79659682 Ry
     estimated scf accuracy    <     155.64974966 Ry

     iteration # 68     ecut=    30.00 Ry     beta= 0.70
     Davidson diagonalization with overlap

---- Real-time Memory Report at c_bands before calling an iterative solver
           865 MiB given to the printing process from OS
             0 MiB allocation reported by mallinfo(arena+hblkhd)
        113382 MiB available memory on the node where the printing process lives
------------------
     ethr =  5.59E-03,  avg # of iterations =  3.0

     negative rho (up, down):  3.522E-03 0.000E+00

     total cpu time spent up to now is      200.9 secs

     WARNING: integrated charge=   202.00044129, expected=   202.00000000

     total energy              =   -4182.42965499 Ry
     estimated scf accuracy    <      86.19597003 Ry

     iteration # 69     ecut=    30.00 Ry     beta= 0.70
     Davidson diagonalization with overlap

---- Real-time Memory Report at c_bands before calling an iterative solver
           865 MiB given to the printing process from OS
             0 MiB allocation reported by mallinfo(arena+hblkhd)
        113381 MiB available memory on the node where the printing process lives
------------------
     ethr =  5.59E-03,  avg # of iterations =  2.0

     negative rho (up, down):  3.549E-03 0.000E+00

     total cpu time spent up to now is      203.7 secs

     WARNING: integrated charge=   202.00039398, expected=   202.00000000

     total energy              =   -4182.81831266 Ry
     estimated scf accuracy    <       3.55150223 Ry

     iteration # 70     ecut=    30.00 Ry     beta= 0.70
     Davidson diagonalization with overlap

---- Real-time Memory Report at c_bands before calling an iterative solver
           865 MiB given to the printing process from OS
             0 MiB allocation reported by mallinfo(arena+hblkhd)
        113380 MiB available memory on the node where the printing process lives
------------------
     ethr =  1.76E-03,  avg # of iterations =  2.0

     negative rho (up, down):  3.553E-03 0.000E+00

     total cpu time spent up to now is      206.4 secs

     WARNING: integrated charge=   202.00040095, expected=   202.00000000

     total energy              =   -4182.96436997 Ry
     estimated scf accuracy    <      10.22509779 Ry

     iteration # 71     ecut=    30.00 Ry     beta= 0.70
     Davidson diagonalization with overlap

---- Real-time Memory Report at c_bands before calling an iterative solver
           865 MiB given to the printing process from OS
             0 MiB allocation reported by mallinfo(arena+hblkhd)
        113383 MiB available memory on the node where the printing process lives
------------------
     ethr =  1.76E-03,  avg # of iterations =  1.0

     negative rho (up, down):  3.652E-03 0.000E+00

     total cpu time spent up to now is      209.1 secs

     WARNING: integrated charge=   202.00039566, expected=   202.00000000

     total energy              =   -4182.84138144 Ry
     estimated scf accuracy    <       6.71881867 Ry

     iteration # 72     ecut=    30.00 Ry     beta= 0.70
     Davidson diagonalization with overlap

---- Real-time Memory Report at c_bands before calling an iterative solver
           865 MiB given to the printing process from OS
             0 MiB allocation reported by mallinfo(arena+hblkhd)
        113383 MiB available memory on the node where the printing process lives
------------------
     ethr =  1.76E-03,  avg # of iterations =  2.0

     negative rho (up, down):  3.635E-03 0.000E+00

     total cpu time spent up to now is      211.8 secs

     WARNING: integrated charge=   202.00025165, expected=   202.00000000

     total energy              =   -4182.39051145 Ry
     estimated scf accuracy    <      21.99823755 Ry

     iteration # 73     ecut=    30.00 Ry     beta= 0.70
     Davidson diagonalization with overlap

---- Real-time Memory Report at c_bands before calling an iterative solver
           865 MiB given to the printing process from OS
             0 MiB allocation reported by mallinfo(arena+hblkhd)
        113386 MiB available memory on the node where the printing process lives
------------------
     ethr =  1.76E-03,  avg # of iterations =  3.0

     negative rho (up, down):  3.619E-03 0.000E+00

     total cpu time spent up to now is      214.5 secs

     WARNING: integrated charge=   202.00025982, expected=   202.00000000

     total energy              =   -4182.21075834 Ry
     estimated scf accuracy    <      48.83797282 Ry

     iteration # 74     ecut=    30.00 Ry     beta= 0.70
     Davidson diagonalization with overlap

---- Real-time Memory Report at c_bands before calling an iterative solver
           865 MiB given to the printing process from OS
             0 MiB allocation reported by mallinfo(arena+hblkhd)
        113385 MiB available memory on the node where the printing process lives
------------------
     ethr =  1.76E-03,  avg # of iterations =  2.0

     negative rho (up, down):  3.467E-03 0.000E+00

     total cpu time spent up to now is      217.2 secs

     WARNING: integrated charge=   202.00013537, expected=   202.00000000

     total energy              =   -4182.17639424 Ry
     estimated scf accuracy    <      48.97819089 Ry

     iteration # 75     ecut=    30.00 Ry     beta= 0.70
     Davidson diagonalization with overlap

---- Real-time Memory Report at c_bands before calling an iterative solver
           865 MiB given to the printing process from OS
             0 MiB allocation reported by mallinfo(arena+hblkhd)
        113385 MiB available memory on the node where the printing process lives
------------------
     ethr =  1.76E-03,  avg # of iterations =  2.0

     negative rho (up, down):  3.520E-03 0.000E+00

     total cpu time spent up to now is      220.0 secs

     WARNING: integrated charge=   202.00011278, expected=   202.00000000

     total energy              =   -4182.95528881 Ry
     estimated scf accuracy    <      68.39984828 Ry

     iteration # 76     ecut=    30.00 Ry     beta= 0.70
     Davidson diagonalization with overlap

---- Real-time Memory Report at c_bands before calling an iterative solver
           865 MiB given to the printing process from OS
             0 MiB allocation reported by mallinfo(arena+hblkhd)
        113385 MiB available memory on the node where the printing process lives
------------------
     ethr =  1.76E-03,  avg # of iterations =  4.0

     negative rho (up, down):  3.973E-03 0.000E+00

     total cpu time spent up to now is      222.9 secs

     WARNING: integrated charge=   202.00009101, expected=   202.00000000

     total energy              =   -4182.61172238 Ry
     estimated scf accuracy    <     101.57615875 Ry

     iteration # 77     ecut=    30.00 Ry     beta= 0.70
     Davidson diagonalization with overlap

---- Real-time Memory Report at c_bands before calling an iterative solver
           865 MiB given to the printing process from OS
             0 MiB allocation reported by mallinfo(arena+hblkhd)
        113384 MiB available memory on the node where the printing process lives
------------------
     ethr =  1.76E-03,  avg # of iterations =  2.0

     negative rho (up, down):  3.752E-03 0.000E+00

     total cpu time spent up to now is      225.6 secs

     WARNING: integrated charge=   202.00008807, expected=   202.00000000

     total energy              =   -4182.90315817 Ry
     estimated scf accuracy    <      24.36001005 Ry

     iteration # 78     ecut=    30.00 Ry     beta= 0.70
     Davidson diagonalization with overlap

---- Real-time Memory Report at c_bands before calling an iterative solver
           865 MiB given to the printing process from OS
             0 MiB allocation reported by mallinfo(arena+hblkhd)
        113384 MiB available memory on the node where the printing process lives
------------------
     ethr =  1.76E-03,  avg # of iterations =  2.0

     negative rho (up, down):  3.646E-03 0.000E+00

     total cpu time spent up to now is      228.3 secs

     WARNING: integrated charge=   202.00008567, expected=   202.00000000

     total energy              =   -4182.88926404 Ry
     estimated scf accuracy    <      40.33702337 Ry

     iteration # 79     ecut=    30.00 Ry     beta= 0.70
     Davidson diagonalization with overlap

---- Real-time Memory Report at c_bands before calling an iterative solver
           865 MiB given to the printing process from OS
             0 MiB allocation reported by mallinfo(arena+hblkhd)
        113385 MiB available memory on the node where the printing process lives
------------------
     ethr =  1.76E-03,  avg # of iterations =  1.0

     negative rho (up, down):  3.498E-03 0.000E+00

     total cpu time spent up to now is      230.9 secs

     WARNING: integrated charge=   202.00007381, expected=   202.00000000

     total energy              =   -4182.53065662 Ry
     estimated scf accuracy    <       5.44783373 Ry

     iteration # 80     ecut=    30.00 Ry     beta= 0.70
     Davidson diagonalization with overlap

---- Real-time Memory Report at c_bands before calling an iterative solver
           865 MiB given to the printing process from OS
             0 MiB allocation reported by mallinfo(arena+hblkhd)
        113404 MiB available memory on the node where the printing process lives
------------------
     ethr =  1.76E-03,  avg # of iterations =  2.0

     negative rho (up, down):  3.476E-03 0.000E+00

     total cpu time spent up to now is      233.6 secs

     WARNING: integrated charge=   202.00004978, expected=   202.00000000

     total energy              =   -4182.59424841 Ry
     estimated scf accuracy    <     106.60428248 Ry

     iteration # 81     ecut=    30.00 Ry     beta= 0.70
     Davidson diagonalization with overlap

---- Real-time Memory Report at c_bands before calling an iterative solver
           865 MiB given to the printing process from OS
             0 MiB allocation reported by mallinfo(arena+hblkhd)
        113405 MiB available memory on the node where the printing process lives
------------------
     ethr =  1.76E-03,  avg # of iterations =  3.0

     negative rho (up, down):  3.821E-03 0.000E+00

     total cpu time spent up to now is      236.2 secs

     WARNING: integrated charge=   202.00003701, expected=   202.00000000

     total energy              =   -4183.09599001 Ry
     estimated scf accuracy    <      24.08849923 Ry

     iteration # 82     ecut=    30.00 Ry     beta= 0.70
     Davidson diagonalization with overlap

---- Real-time Memory Report at c_bands before calling an iterative solver
           865 MiB given to the printing process from OS
             0 MiB allocation reported by mallinfo(arena+hblkhd)
        113405 MiB available memory on the node where the printing process lives
------------------
     ethr =  1.76E-03,  avg # of iterations =  8.0

     negative rho (up, down):  3.697E-03 0.000E+00

     total cpu time spent up to now is      239.1 secs

     WARNING: integrated charge=   202.00002961, expected=   202.00000000

     total energy              =   -4181.81611547 Ry
     estimated scf accuracy    <      51.79779085 Ry

     iteration # 83     ecut=    30.00 Ry     beta= 0.70
     Davidson diagonalization with overlap

---- Real-time Memory Report at c_bands before calling an iterative solver
           865 MiB given to the printing process from OS
             0 MiB allocation reported by mallinfo(arena+hblkhd)
        113404 MiB available memory on the node where the printing process lives
------------------
     ethr =  1.76E-03,  avg # of iterations =  7.0

     negative rho (up, down):  3.864E-03 0.000E+00

     total cpu time spent up to now is      241.8 secs

     WARNING: integrated charge=   202.00002255, expected=   202.00000000

     total energy              =   -4182.95896934 Ry
     estimated scf accuracy    <      17.88595222 Ry

     iteration # 84     ecut=    30.00 Ry     beta= 0.70
     Davidson diagonalization with overlap

---- Real-time Memory Report at c_bands before calling an iterative solver
           865 MiB given to the printing process from OS
             0 MiB allocation reported by mallinfo(arena+hblkhd)
        113402 MiB available memory on the node where the printing process lives
------------------
     ethr =  1.76E-03,  avg # of iterations =  7.0

     negative rho (up, down):  3.980E-03 0.000E+00

     total cpu time spent up to now is      244.6 secs

     WARNING: integrated charge=   202.00002158, expected=   202.00000000

     total energy              =   -4180.76602074 Ry
     estimated scf accuracy    <     154.60808485 Ry

     iteration # 85     ecut=    30.00 Ry     beta= 0.70
     Davidson diagonalization with overlap

---- Real-time Memory Report at c_bands before calling an iterative solver
           865 MiB given to the printing process from OS
             0 MiB allocation reported by mallinfo(arena+hblkhd)
        113402 MiB available memory on the node where the printing process lives
------------------
     ethr =  1.76E-03,  avg # of iterations =  7.0

     negative rho (up, down):  4.094E-03 0.000E+00

     total cpu time spent up to now is      247.3 secs

     total energy              =   -4182.51876495 Ry
     estimated scf accuracy    <      36.91938373 Ry

     iteration # 86     ecut=    30.00 Ry     beta= 0.70
     Davidson diagonalization with overlap

---- Real-time Memory Report at c_bands before calling an iterative solver
           865 MiB given to the printing process from OS
             0 MiB allocation reported by mallinfo(arena+hblkhd)
        113403 MiB available memory on the node where the printing process lives
------------------
     ethr =  1.76E-03,  avg # of iterations =  3.0

     negative rho (up, down):  3.668E-03 0.000E+00

     total cpu time spent up to now is      250.0 secs

     total energy              =   -4182.83881230 Ry
     estimated scf accuracy    <      18.17288544 Ry

     iteration # 87     ecut=    30.00 Ry     beta= 0.70
     Davidson diagonalization with overlap

---- Real-time Memory Report at c_bands before calling an iterative solver
           865 MiB given to the printing process from OS
             0 MiB allocation reported by mallinfo(arena+hblkhd)
        113402 MiB available memory on the node where the printing process lives
------------------
     ethr =  1.76E-03,  avg # of iterations =  1.0

     negative rho (up, down):  3.560E-03 0.000E+00

     total cpu time spent up to now is      253.3 secs

     total energy              =   -4182.25403707 Ry
     estimated scf accuracy    <      65.33137218 Ry

     iteration # 88     ecut=    30.00 Ry     beta= 0.70
     Davidson diagonalization with overlap

---- Real-time Memory Report at c_bands before calling an iterative solver
           865 MiB given to the printing process from OS
             0 MiB allocation reported by mallinfo(arena+hblkhd)
        113389 MiB available memory on the node where the printing process lives
------------------
     ethr =  1.76E-03,  avg # of iterations =  3.0

     negative rho (up, down):  3.535E-03 0.000E+00

     total cpu time spent up to now is      256.1 secs

     total energy              =   -4181.09951513 Ry
     estimated scf accuracy    <      16.30333784 Ry

     iteration # 89     ecut=    30.00 Ry     beta= 0.70
     Davidson diagonalization with overlap

---- Real-time Memory Report at c_bands before calling an iterative solver
           865 MiB given to the printing process from OS
             0 MiB allocation reported by mallinfo(arena+hblkhd)
        113389 MiB available memory on the node where the printing process lives
------------------
     ethr =  1.76E-03,  avg # of iterations =  4.0

     negative rho (up, down):  3.543E-03 0.000E+00

     total cpu time spent up to now is      258.8 secs

     total energy              =   -4183.54059445 Ry
     estimated scf accuracy    <      60.64805760 Ry

     iteration # 90     ecut=    30.00 Ry     beta= 0.70
     Davidson diagonalization with overlap

---- Real-time Memory Report at c_bands before calling an iterative solver
           865 MiB given to the printing process from OS
             0 MiB allocation reported by mallinfo(arena+hblkhd)
        113388 MiB available memory on the node where the printing process lives
------------------
     ethr =  1.76E-03,  avg # of iterations =  3.0

     negative rho (up, down):  3.636E-03 0.000E+00

     total cpu time spent up to now is      261.5 secs

     total energy              =   -4183.25003270 Ry
     estimated scf accuracy    <      94.39809929 Ry

     iteration # 91     ecut=    30.00 Ry     beta= 0.70
     Davidson diagonalization with overlap

---- Real-time Memory Report at c_bands before calling an iterative solver
           865 MiB given to the printing process from OS
             0 MiB allocation reported by mallinfo(arena+hblkhd)
        113391 MiB available memory on the node where the printing process lives
------------------
     ethr =  1.76E-03,  avg # of iterations =  2.0

     negative rho (up, down):  3.863E-03 0.000E+00

     total cpu time spent up to now is      264.1 secs

     total energy              =   -4183.03740324 Ry
     estimated scf accuracy    <      15.51388083 Ry

     iteration # 92     ecut=    30.00 Ry     beta= 0.70
     Davidson diagonalization with overlap

---- Real-time Memory Report at c_bands before calling an iterative solver
           865 MiB given to the printing process from OS
             0 MiB allocation reported by mallinfo(arena+hblkhd)
        113391 MiB available memory on the node where the printing process lives
------------------
     ethr =  1.76E-03,  avg # of iterations =  8.0

     negative rho (up, down):  4.000E-03 0.000E+00

     total cpu time spent up to now is      266.9 secs

     total energy              =   -4181.75894477 Ry
     estimated scf accuracy    <     104.29144470 Ry

     iteration # 93     ecut=    30.00 Ry     beta= 0.70
     Davidson diagonalization with overlap

---- Real-time Memory Report at c_bands before calling an iterative solver
           865 MiB given to the printing process from OS
             0 MiB allocation reported by mallinfo(arena+hblkhd)
        113391 MiB available memory on the node where the printing process lives
------------------
     ethr =  1.76E-03,  avg # of iterations =  5.0

     negative rho (up, down):  4.305E-03 0.000E+00

     total cpu time spent up to now is      269.6 secs

     total energy              =   -4182.44248832 Ry
     estimated scf accuracy    <     103.49457194 Ry

     iteration # 94     ecut=    30.00 Ry     beta= 0.70
     Davidson diagonalization with overlap

---- Real-time Memory Report at c_bands before calling an iterative solver
           865 MiB given to the printing process from OS
             0 MiB allocation reported by mallinfo(arena+hblkhd)
        113392 MiB available memory on the node where the printing process lives
------------------
     ethr =  1.76E-03,  avg # of iterations =  3.0

     negative rho (up, down):  4.280E-03 0.000E+00

     total cpu time spent up to now is      272.3 secs

     total energy              =   -4182.51657806 Ry
     estimated scf accuracy    <      60.97969471 Ry

     iteration # 95     ecut=    30.00 Ry     beta= 0.70
     Davidson diagonalization with overlap

---- Real-time Memory Report at c_bands before calling an iterative solver
           865 MiB given to the printing process from OS
             0 MiB allocation reported by mallinfo(arena+hblkhd)
        113392 MiB available memory on the node where the printing process lives
------------------
     ethr =  1.76E-03,  avg # of iterations =  1.0

     negative rho (up, down):  3.607E-03 0.000E+00

     total cpu time spent up to now is      274.9 secs

     total energy              =   -4182.98979628 Ry
     estimated scf accuracy    <      50.89914308 Ry

     iteration # 96     ecut=    30.00 Ry     beta= 0.70
     Davidson diagonalization with overlap

---- Real-time Memory Report at c_bands before calling an iterative solver
           865 MiB given to the printing process from OS
             0 MiB allocation reported by mallinfo(arena+hblkhd)
        113391 MiB available memory on the node where the printing process lives
------------------
     ethr =  1.76E-03,  avg # of iterations =  1.0

     negative rho (up, down):  3.837E-03 0.000E+00

     total cpu time spent up to now is      277.5 secs

     total energy              =   -4182.88908011 Ry
     estimated scf accuracy    <      12.51800066 Ry

     iteration # 97     ecut=    30.00 Ry     beta= 0.70
     Davidson diagonalization with overlap

---- Real-time Memory Report at c_bands before calling an iterative solver
           865 MiB given to the printing process from OS
             0 MiB allocation reported by mallinfo(arena+hblkhd)
        113394 MiB available memory on the node where the printing process lives
------------------
     ethr =  1.76E-03,  avg # of iterations =  3.0

     negative rho (up, down):  3.572E-03 0.000E+00

     total cpu time spent up to now is      280.1 secs

     total energy              =   -4180.13156054 Ry
     estimated scf accuracy    <     110.27718262 Ry

     iteration # 98     ecut=    30.00 Ry     beta= 0.70
     Davidson diagonalization with overlap

---- Real-time Memory Report at c_bands before calling an iterative solver
           865 MiB given to the printing process from OS
             0 MiB allocation reported by mallinfo(arena+hblkhd)
        113395 MiB available memory on the node where the printing process lives
------------------
     ethr =  1.76E-03,  avg # of iterations =  2.0

     negative rho (up, down):  3.680E-03 0.000E+00

     total cpu time spent up to now is      282.9 secs

     total energy              =   -4183.27382005 Ry
     estimated scf accuracy    <      19.75151039 Ry

     iteration # 99     ecut=    30.00 Ry     beta= 0.70
     Davidson diagonalization with overlap

---- Real-time Memory Report at c_bands before calling an iterative solver
           865 MiB given to the printing process from OS
             0 MiB allocation reported by mallinfo(arena+hblkhd)
        113376 MiB available memory on the node where the printing process lives
------------------
     ethr =  1.76E-03,  avg # of iterations =  2.0

     negative rho (up, down):  3.647E-03 0.000E+00

     total cpu time spent up to now is      285.6 secs

     total energy              =   -4183.03826278 Ry
     estimated scf accuracy    <      37.27535199 Ry

     iteration #100     ecut=    30.00 Ry     beta= 0.70
     Davidson diagonalization with overlap

---- Real-time Memory Report at c_bands before calling an iterative solver
           865 MiB given to the printing process from OS
             0 MiB allocation reported by mallinfo(arena+hblkhd)
        113378 MiB available memory on the node where the printing process lives
------------------
     ethr =  1.76E-03,  avg # of iterations =  1.0

     negative rho (up, down):  3.654E-03 0.000E+00

     total cpu time spent up to now is      288.2 secs

     total energy              =   -4182.83023722 Ry
     estimated scf accuracy    <       6.32062384 Ry

     End of self-consistent calculation

     convergence NOT achieved after 100 iterations: stopping

     Writing config to output data dir new_calculations/myprefix.save/
