
     Program PWSCF v.7.0 starts on 20May2023 at  6:13: 5 

     This program is part of the open-source Quantum ESPRESSO suite
     for quantum simulation of materials; please cite
         "P. Giannozzi et al., J. Phys.:Condens. Matter 21 395502 (2009);
         "P. Giannozzi et al., J. Phys.:Condens. Matter 29 465901 (2017);
         "P. Giannozzi et al., J. Chem. Phys. 152 154105 (2020);
          URL http://www.quantum-espresso.org", 
     in publications or presentations arising from this work. More details at
     http://www.quantum-espresso.org/quote

     Parallel version (MPI & OpenMP), running on      32 processor cores
     Number of MPI processes:                 1
     Threads/MPI process:                    32

     MPI processes distributed on     1 nodes
     128555 MiB available memory on the printing compute node when the environment starts
 
     Reading input from espresso_19094.pwi
Warning: card &CELL ignored
Warning: card / ignored

     Current dimensions of program PWSCF are:
     Max number of different atomic species (ntypx) = 10
     Max number of k-points (npk) =  40000
     Max angular momentum in pseudopotentials (lmaxx) =  4

     gamma-point specific algorithms are used
     Message from routine setup:
     using ibrav=0 with symmetry is DISCOURAGED, use correct ibrav instead

     Subspace diagonalization in iterative solution of the eigenvalue problem:
     a serial algorithm will be used

 
     G-vector sticks info
     --------------------
     sticks:   dense  smooth     PW     G-vecs:    dense   smooth      PW
     Sum        4327    2163    539               205679    72761    9087
 
     Using Slab Decomposition
 


     bravais-lattice index     =            0
     lattice parameter (alat)  =      15.3664  a.u.
     unit-cell volume          =    3275.0699 (a.u.)^3
     number of atoms/cell      =           18
     number of atomic types    =            2
     number of electrons       =       252.00
     number of Kohn-Sham states=          151
     kinetic-energy cutoff     =      30.0000  Ry
     charge density cutoff     =     240.0000  Ry
     scf convergence threshold =      1.0E-06
     mixing beta               =       0.7000
     number of iterations used =            8  plain     mixing
     Exchange-correlation= PBE
                           (   1   4   3   4   0   0   0)

     celldm(1)=  15.366357  celldm(2)=   0.000000  celldm(3)=   0.000000
     celldm(4)=   0.000000  celldm(5)=   0.000000  celldm(6)=   0.000000

     crystal axes: (cart. coord. in units of alat)
               a(1) = (   1.000000   0.000000   0.000000 )  
               a(2) = (   0.000000   0.959879   0.000000 )  
               a(3) = (   0.000000   0.328293   0.940354 )  

     reciprocal axes: (cart. coord. in units 2 pi/alat)
               b(1) = (  1.000000  0.000000  0.000000 )  
               b(2) = (  0.000000  1.041799 -0.363709 )  
               b(3) = (  0.000000  0.000000  1.063429 )  


     PseudoPot. # 1 for Ca read from file:
     /home/pragov/projects/rrg-bengioy-ad/pragov/crystal_structure_design/SSSP/Ca_pbe_v1.uspp.F.UPF
     MD5 check sum: 403a4c14b9e4d4dfdc3024c9a3812218
     Pseudo is Ultrasoft + core correction, Zval = 10.0
     Generated by new atomic code, or converted to UPF format
     Using radial grid of  845 points,  6 beta functions with: 
                l(1) =   0
                l(2) =   0
                l(3) =   1
                l(4) =   1
                l(5) =   2
                l(6) =   2
     Q(r) pseudized with  8 coefficients,  rinner =    1.500   1.500   1.500
                                                       1.500   1.500

     PseudoPot. # 2 for Au read from file:
     /home/pragov/projects/rrg-bengioy-ad/pragov/crystal_structure_design/SSSP/Au_ONCV_PBE-1.0.oncvpsp.upf
     MD5 check sum: d14007822ba0e19f0206237467fc06c2
     Pseudo is Norm-conserving, Zval = 19.0
     Generated using ONCVPSP code by D. R. Hamann
     Using radial grid of 1278 points,  8 beta functions with: 
                l(1) =   0
                l(2) =   0
                l(3) =   1
                l(4) =   1
                l(5) =   2
                l(6) =   2
                l(7) =   3
                l(8) =   3

     atomic species   valence    mass     pseudopotential
        Ca            10.00    40.07800     Ca( 1.00)
        Au            19.00   196.96657     Au( 1.00)

      4 Sym. Ops., with inversion, found ( 2 have fractional translation)


                                    s                        frac. trans.

      isym =  1     identity                                     

 cryst.   s( 1) = (     1          0          0      )
                  (     0          1          0      )
                  (     0          0          1      )

 cart.    s( 1) = (  1.0000000  0.0000000  0.0000000 )
                  (  0.0000000  1.0000000 -0.0000000 )
                  (  0.0000000  0.0000000  1.0000000 )


      isym =  2     180 deg rotation - cart. axis [1,0,0]        

 cryst.   s( 2) = (     1          0          0      )    f =( -0.5000000 )
                  (     0         -1          0      )       ( -0.5000000 )
                  (     0          0         -1      )       (  0.0000000 )

 cart.    s( 2) = (  1.0000000  0.0000000  0.0000000 )    f =( -0.5000000 )
                  (  0.0000000 -1.0000000  0.0000000 )       ( -0.4799393 )
                  (  0.0000000  0.0000000 -1.0000000 )       (  0.0000000 )


      isym =  3     inversion                                    

 cryst.   s( 3) = (    -1          0          0      )
                  (     0         -1          0      )
                  (     0          0         -1      )

 cart.    s( 3) = ( -1.0000000  0.0000000  0.0000000 )
                  (  0.0000000 -1.0000000  0.0000000 )
                  (  0.0000000  0.0000000 -1.0000000 )


      isym =  4     inv. 180 deg rotation - cart. axis [1,0,0]   

 cryst.   s( 4) = (    -1          0          0      )    f =(  0.5000000 )
                  (     0          1          0      )       (  0.5000000 )
                  (     0          0          1      )       (  0.0000000 )

 cart.    s( 4) = ( -1.0000000  0.0000000  0.0000000 )    f =(  0.5000000 )
                  (  0.0000000  1.0000000 -0.0000000 )       (  0.4799393 )
                  (  0.0000000  0.0000000  1.0000000 )       (  0.0000000 )


   Cartesian axes

     site n.     atom                  positions (alat units)
         1           Ca  tau(   1) = (   0.3211860   0.1672271   0.2894289  )
         2           Ca  tau(   2) = (   0.1788140   0.6471664   0.2894289  )
         3           Ca  tau(   3) = (   0.8211860   0.6410056   0.6509255  )
         4           Ca  tau(   4) = (   0.3303470   0.4865964   0.6998098  )
         5           Ca  tau(   5) = (   0.0000000   0.0000000   0.0000000  )
         6           Ca  tau(   6) = (   0.6788140   1.1209449   0.6509255  )
         7           Ca  tau(   7) = (   0.8303470   0.3216364   0.2405445  )
         8           Ca  tau(   8) = (   0.1696530   0.9665356   0.6998098  )
         9           Ca  tau(   9) = (   0.6696530   0.8015756   0.2405445  )
        10           Ca  tau(  10) = (   0.5000000   0.4799393   0.0000000  )
        11           Au  tau(  11) = (   0.8680310   0.9289294   0.9287560  )
        12           Au  tau(  12) = (   0.9671060   0.9582668   0.3925688  )
        13           Au  tau(  13) = (   0.1319690   0.3592426   0.0115983  )
        14           Au  tau(  14) = (   0.5328940   0.4783276   0.3925688  )
        15           Au  tau(  15) = (   0.3680310   0.8391819   0.0115983  )
        16           Au  tau(  16) = (   0.4671060   0.8098444   0.5477856  )
        17           Au  tau(  17) = (   0.0328940   0.3299052   0.5477856  )
        18           Au  tau(  18) = (   0.6319690   0.4489901   0.9287560  )

   Crystallographic axes

     site n.     atom                  positions (cryst. coord.)
         1           Ca  tau(   1) = (  0.3211860  0.0689490  0.3077870  )
         2           Ca  tau(   2) = (  0.1788140  0.5689490  0.3077870  )
         3           Ca  tau(   3) = (  0.8211860  0.4310510  0.6922130  )
         4           Ca  tau(   4) = (  0.3303470  0.2524080  0.7441980  )
         5           Ca  tau(   5) = (  0.0000000  0.0000000  0.0000000  )
         6           Ca  tau(   6) = (  0.6788140  0.9310510  0.6922130  )
         7           Ca  tau(   7) = (  0.8303470  0.2475920  0.2558020  )
         8           Ca  tau(   8) = (  0.1696530  0.7524080  0.7441980  )
         9           Ca  tau(   9) = (  0.6696530  0.7475920  0.2558020  )
        10           Ca  tau(  10) = (  0.5000000  0.5000000  0.0000000  )
        11           Au  tau(  11) = (  0.8680310  0.6299600  0.9876660  )
        12           Au  tau(  12) = (  0.9671060  0.8555400  0.4174690  )
        13           Au  tau(  13) = (  0.1319690  0.3700400  0.0123340  )
        14           Au  tau(  14) = (  0.5328940  0.3555400  0.4174690  )
        15           Au  tau(  15) = (  0.3680310  0.8700400  0.0123340  )
        16           Au  tau(  16) = (  0.4671060  0.6444600  0.5825310  )
        17           Au  tau(  17) = (  0.0328940  0.1444600  0.5825310  )
        18           Au  tau(  18) = (  0.6319690  0.1299600  0.9876660  )

     number of k points=     1  Methfessel-Paxton smearing, width (Ry)=  0.0010
                       cart. coord. in units 2pi/alat
        k(    1) = (   0.0000000   0.0000000   0.0000000), wk =   2.0000000

                       cryst. coord.
        k(    1) = (   0.0000000   0.0000000   0.0000000), wk =   2.0000000

     Dense  grid:   102840 G-vectors     FFT dimensions: (  80,  80,  75)

     Smooth grid:    36381 G-vectors     FFT dimensions: (  54,  54,  54)

     Dynamical RAM for                 wfc:      10.47 MB

     Dynamical RAM for     wfc (w. buffer):      10.47 MB

     Dynamical RAM for           str. fact:       3.14 MB

     Dynamical RAM for           local pot:       0.00 MB

     Dynamical RAM for          nlocal pot:      30.23 MB

     Dynamical RAM for                qrad:       5.97 MB

     Dynamical RAM for          rho,v,vnew:      15.69 MB

     Dynamical RAM for               rhoin:       5.23 MB

     Dynamical RAM for            rho*nmix:      25.11 MB

     Dynamical RAM for           G-vectors:       6.16 MB

     Dynamical RAM for          h,s,v(r/c):       2.09 MB

     Dynamical RAM for          <psi|beta>:       0.50 MB

     Dynamical RAM for                 psi:      20.94 MB

     Dynamical RAM for                hpsi:      20.94 MB

     Dynamical RAM for                spsi:      20.94 MB

     Dynamical RAM for      wfcinit/wfcrot:      25.70 MB

     Dynamical RAM for           addusdens:     326.40 MB

     Dynamical RAM for          addusforce:     355.47 MB

     Dynamical RAM for         addusstress:     353.07 MB

     Estimated static dynamical RAM per process >      99.92 MB

     Estimated max dynamical RAM per process >     480.49 MB

     Initial potential from superposition of free atoms

     starting charge     251.9447, renormalised to     252.0000
     Starting wfcs are  180 randomized atomic wfcs

     total cpu time spent up to now is       28.3 secs

     Self-consistent Calculation

     iteration #  1     ecut=    30.00 Ry     beta= 0.70
     Davidson diagonalization with overlap

---- Real-time Memory Report at c_bands before calling an iterative solver
           772 MiB given to the printing process from OS
             0 MiB allocation reported by mallinfo(arena+hblkhd)
        128266 MiB available memory on the node where the printing process lives
------------------
     ethr =  1.00E-02,  avg # of iterations =  6.0

     Threshold (ethr) on eigenvalues was too large:
     Diagonalizing with lowered threshold

     Davidson diagonalization with overlap

---- Real-time Memory Report at c_bands before calling an iterative solver
           889 MiB given to the printing process from OS
             0 MiB allocation reported by mallinfo(arena+hblkhd)
        128201 MiB available memory on the node where the printing process lives
------------------
     ethr =  1.02E-04,  avg # of iterations =  7.0

     total cpu time spent up to now is       73.2 secs

     total energy              =   -2946.47120538 Ry
     estimated scf accuracy    <       0.25604651 Ry

     iteration #  2     ecut=    30.00 Ry     beta= 0.70
     Davidson diagonalization with overlap

---- Real-time Memory Report at c_bands before calling an iterative solver
           954 MiB given to the printing process from OS
             0 MiB allocation reported by mallinfo(arena+hblkhd)
        128152 MiB available memory on the node where the printing process lives
------------------
     ethr =  1.02E-04,  avg # of iterations =  9.0

     total cpu time spent up to now is       86.6 secs

     total energy              =   -2946.36436509 Ry
     estimated scf accuracy    <       0.81192459 Ry

     iteration #  3     ecut=    30.00 Ry     beta= 0.70
     Davidson diagonalization with overlap

---- Real-time Memory Report at c_bands before calling an iterative solver
           954 MiB given to the printing process from OS
             0 MiB allocation reported by mallinfo(arena+hblkhd)
        128131 MiB available memory on the node where the printing process lives
------------------
     ethr =  1.02E-04,  avg # of iterations =  6.0

     total cpu time spent up to now is       91.9 secs

     total energy              =   -2946.51280521 Ry
     estimated scf accuracy    <       0.22341422 Ry

     iteration #  4     ecut=    30.00 Ry     beta= 0.70
     Davidson diagonalization with overlap

---- Real-time Memory Report at c_bands before calling an iterative solver
           954 MiB given to the printing process from OS
             0 MiB allocation reported by mallinfo(arena+hblkhd)
        128132 MiB available memory on the node where the printing process lives
------------------
     ethr =  8.87E-05,  avg # of iterations =  8.0

     total cpu time spent up to now is       95.9 secs

     total energy              =   -2946.54244579 Ry
     estimated scf accuracy    <       0.03223676 Ry

     iteration #  5     ecut=    30.00 Ry     beta= 0.70
     Davidson diagonalization with overlap

---- Real-time Memory Report at c_bands before calling an iterative solver
           954 MiB given to the printing process from OS
             0 MiB allocation reported by mallinfo(arena+hblkhd)
        128146 MiB available memory on the node where the printing process lives
------------------
     ethr =  1.28E-05,  avg # of iterations = 18.0

     total cpu time spent up to now is      110.1 secs

     total energy              =   -2946.54633524 Ry
     estimated scf accuracy    <       0.00545504 Ry

     iteration #  6     ecut=    30.00 Ry     beta= 0.70
     Davidson diagonalization with overlap

---- Real-time Memory Report at c_bands before calling an iterative solver
           954 MiB given to the printing process from OS
             0 MiB allocation reported by mallinfo(arena+hblkhd)
        128154 MiB available memory on the node where the printing process lives
------------------
     ethr =  2.16E-06,  avg # of iterations =  5.0

     total cpu time spent up to now is      112.9 secs

     total energy              =   -2946.54628215 Ry
     estimated scf accuracy    <       0.00153076 Ry

     iteration #  7     ecut=    30.00 Ry     beta= 0.70
     Davidson diagonalization with overlap

---- Real-time Memory Report at c_bands before calling an iterative solver
           954 MiB given to the printing process from OS
             0 MiB allocation reported by mallinfo(arena+hblkhd)
        128156 MiB available memory on the node where the printing process lives
------------------
     ethr =  6.07E-07,  avg # of iterations =  5.0

     total cpu time spent up to now is      124.4 secs

     total energy              =   -2946.54639983 Ry
     estimated scf accuracy    <       0.00046815 Ry

     iteration #  8     ecut=    30.00 Ry     beta= 0.70
     Davidson diagonalization with overlap

---- Real-time Memory Report at c_bands before calling an iterative solver
           954 MiB given to the printing process from OS
             0 MiB allocation reported by mallinfo(arena+hblkhd)
        128141 MiB available memory on the node where the printing process lives
------------------
     ethr =  1.86E-07,  avg # of iterations =  3.0

     total cpu time spent up to now is      139.7 secs

     total energy              =   -2946.54646527 Ry
     estimated scf accuracy    <       0.00038487 Ry

     iteration #  9     ecut=    30.00 Ry     beta= 0.70
     Davidson diagonalization with overlap

---- Real-time Memory Report at c_bands before calling an iterative solver
           954 MiB given to the printing process from OS
             0 MiB allocation reported by mallinfo(arena+hblkhd)
        128138 MiB available memory on the node where the printing process lives
------------------
     ethr =  1.53E-07,  avg # of iterations =  2.0

     total cpu time spent up to now is      142.4 secs

     total energy              =   -2946.54650241 Ry
     estimated scf accuracy    <       0.00003106 Ry

     iteration # 10     ecut=    30.00 Ry     beta= 0.70
     Davidson diagonalization with overlap

---- Real-time Memory Report at c_bands before calling an iterative solver
           954 MiB given to the printing process from OS
             0 MiB allocation reported by mallinfo(arena+hblkhd)
        128132 MiB available memory on the node where the printing process lives
------------------
     ethr =  1.23E-08,  avg # of iterations =  3.0

     total cpu time spent up to now is      145.3 secs

     total energy              =   -2946.54650409 Ry
     estimated scf accuracy    <       0.00002324 Ry

     iteration # 11     ecut=    30.00 Ry     beta= 0.70
     Davidson diagonalization with overlap

---- Real-time Memory Report at c_bands before calling an iterative solver
           954 MiB given to the printing process from OS
             0 MiB allocation reported by mallinfo(arena+hblkhd)
        128138 MiB available memory on the node where the printing process lives
------------------
     ethr =  9.22E-09,  avg # of iterations =  2.0

     total cpu time spent up to now is      149.6 secs

     total energy              =   -2946.54650731 Ry
     estimated scf accuracy    <       0.00000273 Ry

     iteration # 12     ecut=    30.00 Ry     beta= 0.70
     Davidson diagonalization with overlap

---- Real-time Memory Report at c_bands before calling an iterative solver
           954 MiB given to the printing process from OS
             0 MiB allocation reported by mallinfo(arena+hblkhd)
        128114 MiB available memory on the node where the printing process lives
------------------
     ethr =  1.08E-09,  avg # of iterations =  3.0

     total cpu time spent up to now is      154.3 secs

     End of self-consistent calculation

          k = 0.0000 0.0000 0.0000 (  4544 PWs)   bands (ev):

   -96.4361 -96.4344 -96.4343 -96.4325 -96.3630 -96.3623 -96.3618 -96.3613
   -47.4661 -47.4644 -47.4624 -47.4606 -47.4512 -47.4488 -47.4446 -47.4427
   -47.4330 -47.4297 -47.3971 -47.3964 -47.3961 -47.3958 -47.3950 -47.3937
   -47.3685 -47.3670 -47.3473 -47.3462 -47.3429 -47.3421 -47.3385 -47.3380
   -31.3823 -31.3810 -31.3794 -31.3784 -30.8705 -30.8647 -30.8452 -30.8432
   -30.8428 -30.8403 -12.3988 -12.3983 -12.3973 -12.3956 -12.3928 -12.3895
   -12.3745 -12.3735 -12.3598 -12.3540 -12.3448 -12.3421 -12.0026 -11.9549
   -11.9517 -11.9425 -11.9389 -11.9117 -11.9096 -11.9091 -11.9044 -11.9032
   -11.8773 -11.8722 -11.8559 -11.8524 -11.8135 -11.8128 -11.8004 -11.7971
     3.8345   4.9423   5.0571   5.0803   5.3662   5.4510   5.4513   5.4858
     5.5111   5.5606   5.6003   5.6038   5.6151   5.6229   5.6460   5.6830
     5.7425   5.7900   5.7944   5.8060   5.8830   5.9068   5.9197   5.9496
     5.9560   5.9783   5.9848   6.0305   6.0397   6.1215   6.1716   6.1909
     6.1982   6.2276   6.2521   6.2565   6.2972   6.3112   6.3464   6.3868
     6.3951   6.4393   6.4826   6.5091   7.1774   7.2595   7.2979   7.8272
     9.0053   9.0410   9.3854   9.5397   9.9495  10.2048  10.3030  10.3511
    10.5182  10.5453  10.5915  11.0634  11.2289  11.3517  11.5285  11.7308
    11.8545  12.0725  12.0956  12.1480  12.4706  12.5825  12.6790  12.6804
    12.9278  13.1029  13.1606  13.1737  13.2849  13.2949  13.4851

     occupation numbers 
     1.0000   1.0000   1.0000   1.0000   1.0000   1.0000   1.0000   1.0000
     1.0000   1.0000   1.0000   1.0000   1.0000   1.0000   1.0000   1.0000
     1.0000   1.0000   1.0000   1.0000   1.0000   1.0000   1.0000   1.0000
     1.0000   1.0000   1.0000   1.0000   1.0000   1.0000   1.0000   1.0000
     1.0000   1.0000   1.0000   1.0000   1.0000   1.0000   1.0000   1.0000
     1.0000   1.0000   1.0000   1.0000   1.0000   1.0000   1.0000   1.0000
     1.0000   1.0000   1.0000   1.0000   1.0000   1.0000   1.0000   1.0000
     1.0000   1.0000   1.0000   1.0000   1.0000   1.0000   1.0000   1.0000
     1.0000   1.0000   1.0000   1.0000   1.0000   1.0000   1.0000   1.0000
     1.0000   1.0000   1.0000   1.0000   1.0000   1.0000   1.0000   1.0000
     1.0000   1.0000   1.0000   1.0000   1.0000   1.0000   1.0000   1.0000
     1.0000   1.0000   1.0000   1.0000   1.0000   1.0000   1.0000   1.0000
     1.0000   1.0000   1.0000   1.0000   1.0000   1.0000   1.0000   1.0000
     1.0000   1.0000   1.0000   1.0000   1.0000   1.0000   1.0000   1.0000
     1.0000   1.0000   1.0000   1.0000   1.0000   1.0000   1.0000   1.0000
     1.0000   1.0000   1.0000   1.0000   1.0000   1.0000  -0.0000  -0.0000
    -0.0000  -0.0000  -0.0000  -0.0000  -0.0000  -0.0000  -0.0000  -0.0000
    -0.0000  -0.0000  -0.0000  -0.0000  -0.0000  -0.0000  -0.0000  -0.0000
    -0.0000  -0.0000  -0.0000  -0.0000  -0.0000  -0.0000  -0.0000

     the Fermi energy is    10.2539 ev

!    total energy              =   -2946.54650736 Ry
     estimated scf accuracy    <       0.00000067 Ry
     smearing contrib. (-TS)   =       0.00000003 Ry
     internal energy E=F+TS    =   -2946.54650739 Ry

     The total energy is F=E-TS. E is the sum of the following terms:
     one-electron contribution =   -1607.51512483 Ry
     hartree contribution      =     839.55701055 Ry
     xc contribution           =    -321.06651258 Ry
     ewald contribution        =   -1857.52188052 Ry

     convergence has been achieved in  12 iterations

     Forces acting on atoms (cartesian axes, Ry/au):

     atom    1 type  1   force =    -0.00014929    0.00489526   -0.00070936
     atom    2 type  1   force =     0.00014929    0.00489526   -0.00070936
     atom    3 type  1   force =    -0.00014929   -0.00489526    0.00070936
     atom    4 type  1   force =    -0.00175797    0.00013966    0.00018536
     atom    5 type  1   force =    -0.00000000    0.00000000   -0.00000000
     atom    6 type  1   force =     0.00014929   -0.00489526    0.00070936
     atom    7 type  1   force =    -0.00175797   -0.00013966   -0.00018536
     atom    8 type  1   force =     0.00175797    0.00013966    0.00018536
     atom    9 type  1   force =     0.00175797   -0.00013966   -0.00018536
     atom   10 type  1   force =    -0.00000000    0.00000000    0.00000000
     atom   11 type  2   force =    -0.00972584    0.02793919   -0.00302418
     atom   12 type  2   force =    -0.00427778   -0.02707359    0.00757776
     atom   13 type  2   force =     0.00972584   -0.02793919    0.00302418
     atom   14 type  2   force =     0.00427778   -0.02707359    0.00757776
     atom   15 type  2   force =    -0.00972584   -0.02793919    0.00302418
     atom   16 type  2   force =    -0.00427778    0.02707359   -0.00757776
     atom   17 type  2   force =     0.00427778    0.02707359   -0.00757776
     atom   18 type  2   force =     0.00972584    0.02793919   -0.00302418
     The non-local contrib.  to forces
     atom    1 type  1   force =     0.00579153   -0.03471281   -0.03074728
     atom    2 type  1   force =    -0.00579153   -0.03471281   -0.03074728
     atom    3 type  1   force =     0.00579153    0.03471281    0.03074728
     atom    4 type  1   force =     0.01797904   -0.02218917   -0.01075811
     atom    5 type  1   force =     0.00000000    0.00000000   -0.00000000
     atom    6 type  1   force =    -0.00579153    0.03471281    0.03074728
     atom    7 type  1   force =     0.01797904    0.02218917    0.01075811
     atom    8 type  1   force =    -0.01797904   -0.02218917   -0.01075811
     atom    9 type  1   force =    -0.01797904    0.02218917    0.01075811
     atom   10 type  1   force =     0.00000000    0.00000000    0.00000000
     atom   11 type  2   force =     0.04058443   -0.13610263    0.01157999
     atom   12 type  2   force =     0.01569195    0.11899971   -0.02896944
     atom   13 type  2   force =    -0.04058443    0.13610263   -0.01157999
     atom   14 type  2   force =    -0.01569195    0.11899971   -0.02896944
     atom   15 type  2   force =     0.04058443    0.13610263   -0.01157999
     atom   16 type  2   force =     0.01569195   -0.11899971    0.02896944
     atom   17 type  2   force =    -0.01569195   -0.11899971    0.02896944
     atom   18 type  2   force =    -0.04058443   -0.13610263    0.01157999
     The ionic contribution  to forces
     atom    1 type  1   force =     2.63081459   -0.42271015    3.76992253
     atom    2 type  1   force =    -2.63081459   -0.42271015    3.76992253
     atom    3 type  1   force =     2.63081459    0.42271015   -3.76992253
     atom    4 type  1   force =    -1.96525516   -0.49166668   -2.67099960
     atom    5 type  1   force =    -0.00000000   -0.00000000    0.00000000
     atom    6 type  1   force =    -2.63081459    0.42271015   -3.76992253
     atom    7 type  1   force =    -1.96525516    0.49166668    2.67099960
     atom    8 type  1   force =     1.96525516   -0.49166668   -2.67099960
     atom    9 type  1   force =     1.96525516    0.49166668    2.67099960
     atom   10 type  1   force =     0.00000000   -0.00000000    0.00000000
     atom   11 type  2   force =    -4.70988211    4.30803835   -0.41062016
     atom   12 type  2   force =    -1.24154098   -9.14154907    0.02044819
     atom   13 type  2   force =     4.70988211   -4.30803835    0.41062016
     atom   14 type  2   force =     1.24154098   -9.14154907    0.02044819
     atom   15 type  2   force =    -4.70988211   -4.30803835    0.41062016
     atom   16 type  2   force =    -1.24154098    9.14154907   -0.02044819
     atom   17 type  2   force =     1.24154098    9.14154907   -0.02044819
     atom   18 type  2   force =     4.70988211    4.30803835   -0.41062016
     The local contribution  to forces
     atom    1 type  1   force =    -2.63665013    0.46126713   -3.74168365
     atom    2 type  1   force =     2.63632161    0.46146821   -3.74154211
     atom    3 type  1   force =    -2.63642810   -0.46238757    3.74161771
     atom    4 type  1   force =     1.94610034    0.51258199    2.68212715
     atom    5 type  1   force =    -0.00023037   -0.00022080   -0.00085097
     atom    6 type  1   force =     2.63670941   -0.46032131    3.74212109
     atom    7 type  1   force =     1.94631557   -0.51349040   -2.68168849
     atom    8 type  1   force =    -1.94642125    0.51422249    2.68225079
     atom    9 type  1   force =    -1.94605190   -0.51324523   -2.68270351
     atom   10 type  1   force =    -0.00002125    0.00012390    0.00020813
     atom   11 type  2   force =     4.65915255   -4.14130683    0.39589788
     atom   12 type  2   force =     1.22175942    8.99511358    0.01545755
     atom   13 type  2   force =    -4.65905558    4.14210944   -0.39662651
     atom   14 type  2   force =    -1.22153406    8.99533297    0.01682164
     atom   15 type  2   force =     4.65885976    4.14430182   -0.39668540
     atom   16 type  2   force =     1.22166144   -8.99580494   -0.01609117
     atom   17 type  2   force =    -1.22183283   -8.99460003   -0.01386782
     atom   18 type  2   force =    -4.65834916   -4.14498317    0.39465557
     The core correction contribution to forces
     atom    1 type  1   force =    -0.00027267    0.00100978    0.00162176
     atom    2 type  1   force =     0.00026770    0.00101166    0.00162304
     atom    3 type  1   force =    -0.00027002   -0.00101366   -0.00162295
     atom    4 type  1   force =    -0.00077303    0.00072924    0.00003643
     atom    5 type  1   force =    -0.00000386   -0.00000202   -0.00000653
     atom    6 type  1   force =     0.00027061   -0.00100689   -0.00162075
     atom    7 type  1   force =    -0.00077158   -0.00073105   -0.00003421
     atom    8 type  1   force =     0.00077216    0.00073584    0.00004002
     atom    9 type  1   force =     0.00077459   -0.00073352   -0.00004251
     atom   10 type  1   force =    -0.00000178    0.00000099    0.00000332
     atom   11 type  2   force =     0.00000000    0.00000000    0.00000000
     atom   12 type  2   force =     0.00000000    0.00000000    0.00000000
     atom   13 type  2   force =     0.00000000    0.00000000    0.00000000
     atom   14 type  2   force =     0.00000000    0.00000000    0.00000000
     atom   15 type  2   force =     0.00000000    0.00000000    0.00000000
     atom   16 type  2   force =     0.00000000    0.00000000    0.00000000
     atom   17 type  2   force =     0.00000000    0.00000000    0.00000000
     atom   18 type  2   force =     0.00000000    0.00000000    0.00000000
     The Hubbard contrib.    to forces
     atom    1 type  1   force =     0.00000000    0.00000000    0.00000000
     atom    2 type  1   force =     0.00000000    0.00000000    0.00000000
     atom    3 type  1   force =     0.00000000    0.00000000    0.00000000
     atom    4 type  1   force =     0.00000000    0.00000000    0.00000000
     atom    5 type  1   force =     0.00000000    0.00000000    0.00000000
     atom    6 type  1   force =     0.00000000    0.00000000    0.00000000
     atom    7 type  1   force =     0.00000000    0.00000000    0.00000000
     atom    8 type  1   force =     0.00000000    0.00000000    0.00000000
     atom    9 type  1   force =     0.00000000    0.00000000    0.00000000
     atom   10 type  1   force =     0.00000000    0.00000000    0.00000000
     atom   11 type  2   force =     0.00000000    0.00000000    0.00000000
     atom   12 type  2   force =     0.00000000    0.00000000    0.00000000
     atom   13 type  2   force =     0.00000000    0.00000000    0.00000000
     atom   14 type  2   force =     0.00000000    0.00000000    0.00000000
     atom   15 type  2   force =     0.00000000    0.00000000    0.00000000
     atom   16 type  2   force =     0.00000000    0.00000000    0.00000000
     atom   17 type  2   force =     0.00000000    0.00000000    0.00000000
     atom   18 type  2   force =     0.00000000    0.00000000    0.00000000
     The SCF correction term to forces
     atom    1 type  1   force =     0.00013797    0.00003491    0.00018128
     atom    2 type  1   force =     0.00013098   -0.00014791    0.00003515
     atom    3 type  1   force =    -0.00006717    0.00105852   -0.00010563
     atom    4 type  1   force =     0.00019679    0.00066388   -0.00025068
     atom    5 type  1   force =     0.00017862    0.00021046    0.00077695
     atom    6 type  1   force =    -0.00022878   -0.00095821   -0.00061556
     atom    7 type  1   force =    -0.00000694    0.00025552   -0.00017866
     atom    8 type  1   force =     0.00013919   -0.00093778   -0.00032136
     atom    9 type  1   force =    -0.00022425   -0.00004174    0.00075747
     atom   10 type  1   force =    -0.00000989   -0.00013270   -0.00015779
     atom   11 type  2   force =     0.00048185   -0.00274740    0.00014923
     atom   12 type  2   force =    -0.00017450    0.00037245    0.00064600
     atom   13 type  2   force =    -0.00055673    0.00190136    0.00061986
     atom   14 type  2   force =    -0.00002614    0.00015021   -0.00077378
     atom   15 type  2   force =     0.00067051   -0.00031877    0.00068974
     atom   16 type  2   force =    -0.00008666    0.00035503   -0.00002790
     atom   17 type  2   force =     0.00026773   -0.00088393   -0.00225771
     atom   18 type  2   force =    -0.00116122    0.00104511    0.00135895

     Total force =     0.082962     Total SCF correction =     0.005503


     Computing stress (Cartesian axis) and pressure

          total   stress  (Ry/bohr**3)                   (kbar)     P=     -282.55
  -0.00198118   0.00000000   0.00000000         -291.44        0.00        0.00
   0.00000000  -0.00183734   0.00002829            0.00     -270.28        4.16
   0.00000000   0.00002829  -0.00194359            0.00        4.16     -285.91

     kinetic stress (kbar)  26105.20      0.00      0.00
                                0.00  26138.90     15.02
                                0.00     15.02  26109.76

     local   stress (kbar) -11228.64     -0.05     -0.06
                               -0.05 -13273.02   -749.83
                               -0.06   -749.83  -8473.15

     nonloc. stress (kbar)   4336.18      0.00      0.00
                                0.00   4345.10     -0.10
                                0.00     -0.10   4330.64

     hartree stress (kbar)  12673.19      0.02      0.05
                                0.02  13564.01    323.35
                                0.05    323.35  11472.87

     exc-cor stress (kbar)  -3741.35      0.00      0.00
                                0.00  -3741.25      0.31
                                0.00      0.31  -3742.20

     corecor stress (kbar)   -763.38     -0.00      0.00
                               -0.00   -763.59      0.01
                                0.00      0.01   -763.28

     ewald   stress (kbar) -27672.64     -0.00      0.00
                               -0.00 -26540.42    415.40
                                0.00    415.40 -29220.55

     hubbard stress (kbar)      0.00      0.00      0.00
                                0.00      0.00      0.00
                                0.00      0.00      0.00

     DFT-D   stress (kbar)      0.00      0.00      0.00
                                0.00      0.00      0.00
                                0.00      0.00      0.00

     XDM     stress (kbar)      0.00      0.00      0.00
                                0.00      0.00      0.00
                                0.00      0.00      0.00

     dft-nl  stress (kbar)      0.00      0.00      0.00
                                0.00      0.00      0.00
                                0.00      0.00      0.00

     TS-vdW  stress (kbar)      0.00      0.00      0.00
                                0.00      0.00      0.00
                                0.00      0.00      0.00


                                0.00      0.00      0.00
                                0.00      0.00      0.00


                                0.00      0.00      0.00


     Writing all to output data dir new_calculations/myprefix.save/
 
     init_run     :    535.89s CPU     28.16s WALL (       1 calls)
     electrons    :   3579.25s CPU    126.14s WALL (       1 calls)
     forces       :     12.55s CPU      0.44s WALL (       1 calls)
     stress       :     53.42s CPU      2.41s WALL (       1 calls)

     Called by init_run:
     wfcinit      :    335.09s CPU     15.04s WALL (       1 calls)
     wfcinit:atom :      0.14s CPU      0.01s WALL (       1 calls)
     wfcinit:wfcr :    333.92s CPU     14.98s WALL (       1 calls)
     potinit      :     69.92s CPU      3.58s WALL (       1 calls)
     hinit0       :    127.81s CPU      9.33s WALL (       1 calls)

     Called by electrons:
     c_bands      :   3014.05s CPU    106.13s WALL (      13 calls)
     sum_band     :    490.97s CPU     17.41s WALL (      13 calls)
     v_of_rho     :     25.29s CPU      0.92s WALL (      13 calls)
     v_h          :      2.45s CPU      0.09s WALL (      13 calls)
     v_xc         :     29.22s CPU      1.05s WALL (      15 calls)
     newd         :     40.33s CPU      1.52s WALL (      13 calls)
     mix_rho      :      6.10s CPU      0.20s WALL (      13 calls)

     Called by c_bands:
     init_us_2    :      1.09s CPU      0.04s WALL (      27 calls)
     init_us_2:cp :      1.05s CPU      0.04s WALL (      27 calls)
     regterg      :   3006.07s CPU    105.86s WALL (      13 calls)

     Called by sum_band:
     sum_band:wei :      0.04s CPU      0.00s WALL (      13 calls)
     sum_band:loo :    451.44s CPU     15.22s WALL (      13 calls)
     sum_band:buf :      0.01s CPU      0.00s WALL (      13 calls)
     sum_band:ini :      0.49s CPU      0.02s WALL (      13 calls)
     sum_band:cal :      0.98s CPU      0.03s WALL (      13 calls)
     sum_band:bec :      0.19s CPU      0.01s WALL (      13 calls)
     addusdens    :     35.83s CPU      2.06s WALL (      13 calls)
     addusd:skk   :      0.67s CPU      0.05s WALL (      13 calls)
     addusd:dgemm :      3.05s CPU      0.87s WALL (      13 calls)
     addusd:qvan2 :     29.38s CPU      0.98s WALL (      13 calls)

     Called by *egterg:
     rdiaghg      :     63.10s CPU      2.18s WALL (      89 calls)
     regterg:over :     12.99s CPU      0.45s WALL (      77 calls)
     regterg:upda :      3.64s CPU      0.12s WALL (      77 calls)
     regterg:last :      7.33s CPU      0.25s WALL (      27 calls)
     h_psi        :   3237.52s CPU    117.29s WALL (      91 calls)
     s_psi        :      1.85s CPU      0.06s WALL (      91 calls)
     g_psi        :      0.23s CPU      0.01s WALL (      77 calls)

     Called by h_psi:
     h_psi:calbec :      8.27s CPU      0.29s WALL (      91 calls)
     vloc_psi     :   3224.65s CPU    116.84s WALL (      91 calls)
     add_vuspsi   :      2.90s CPU      0.10s WALL (      91 calls)

     General routines
     calbec       :      9.53s CPU      0.33s WALL (     109 calls)
     fft          :    127.95s CPU      7.85s WALL (     162 calls)
     ffts         :     65.12s CPU      3.30s WALL (      26 calls)
     fftw         :   3542.76s CPU    127.48s WALL (    5964 calls)
     interpolate  :     66.69s CPU      3.35s WALL (      13 calls)
 
     Parallel routines
 
     PWSCF        :      1h 9m CPU   2m37.47s WALL

 
   This run was terminated on:   6:15:43  20May2023            

=------------------------------------------------------------------------------=
   JOB DONE.
=------------------------------------------------------------------------------=
