
     Program PWSCF v.7.0 starts on 21May2023 at  7:48:23 

     This program is part of the open-source Quantum ESPRESSO suite
     for quantum simulation of materials; please cite
         "P. Giannozzi et al., J. Phys.:Condens. Matter 21 395502 (2009);
         "P. Giannozzi et al., J. Phys.:Condens. Matter 29 465901 (2017);
         "P. Giannozzi et al., J. Chem. Phys. 152 154105 (2020);
          URL http://www.quantum-espresso.org", 
     in publications or presentations arising from this work. More details at
     http://www.quantum-espresso.org/quote

     Parallel version (MPI & OpenMP), running on      32 processor cores
     Number of MPI processes:                 1
     Threads/MPI process:                    32

     MPI processes distributed on     1 nodes
     143509 MiB available memory on the printing compute node when the environment starts
 
     Reading input from espresso_24520.pwi
Warning: card &CELL ignored
Warning: card / ignored

     Current dimensions of program PWSCF are:
     Max number of different atomic species (ntypx) = 10
     Max number of k-points (npk) =  40000
     Max angular momentum in pseudopotentials (lmaxx) =  4
     file Fe.pbe-spn-kjpaw_psl.0.2.1.UPF: wavefunction(s)  3D renormalized

     gamma-point specific algorithms are used
     Message from routine setup:
     using ibrav=0 with symmetry is DISCOURAGED, use correct ibrav instead

     Subspace diagonalization in iterative solution of the eigenvalue problem:
     a serial algorithm will be used

 
     G-vector sticks info
     --------------------
     sticks:   dense  smooth     PW     G-vecs:    dense   smooth      PW
     Sum        1703     843    209                24347     8559    1047
 
     Using Slab Decomposition
 


     bravais-lattice index     =            0
     lattice parameter (alat)  =      19.3735  a.u.
     unit-cell volume          =     386.3548 (a.u.)^3
     number of atoms/cell      =            5
     number of atomic types    =            2
     number of electrons       =        78.00
     number of Kohn-Sham states=           47
     kinetic-energy cutoff     =      30.0000  Ry
     charge density cutoff     =     240.0000  Ry
     scf convergence threshold =      1.0E-06
     mixing beta               =       0.7000
     number of iterations used =            8  plain     mixing
     Exchange-correlation= SLA  PW   PBX  PBC
                           (   1   4   3   4   0   0   0)

     celldm(1)=  19.373545  celldm(2)=   0.000000  celldm(3)=   0.000000
     celldm(4)=   0.000000  celldm(5)=   0.000000  celldm(6)=   0.000000

     crystal axes: (cart. coord. in units of alat)
               a(1) = (   1.000000   0.000000   0.000000 )  
               a(2) = (   0.962052   0.236304   0.000000 )  
               a(3) = (   0.037948  -0.072688   0.224847 )  

     reciprocal axes: (cart. coord. in units 2 pi/alat)
               b(1) = (  1.000000 -4.071239 -1.484916 )  
               b(2) = (  0.000000  4.231830  1.368058 )  
               b(3) = (  0.000000  0.000000  4.447467 )  


     PseudoPot. # 1 for Cr read from file:
     /home/pragov/projects/rrg-bengioy-ad/pragov/crystal_structure_design/SSSP/cr_pbe_v1.5.uspp.F.UPF
     MD5 check sum: 0d52af634a40206e4dee301ad30da4bf
     Pseudo is Ultrasoft + core correction, Zval = 14.0
     Generated by new atomic code, or converted to UPF format
     Using radial grid of  857 points,  6 beta functions with: 
                l(1) =   0
                l(2) =   0
                l(3) =   1
                l(4) =   1
                l(5) =   2
                l(6) =   2
     Q(r) pseudized with  8 coefficients,  rinner =    0.950   0.950   0.950
                                                       0.950   0.950

     PseudoPot. # 2 for Fe read from file:
     /home/pragov/projects/rrg-bengioy-ad/pragov/crystal_structure_design/SSSP/Fe.pbe-spn-kjpaw_psl.0.2.1.UPF
     MD5 check sum: e86618425769142926afa95317d90200
     Pseudo is Projector augmented-wave + core cor, Zval = 16.0
     Generated using "atomic" code by A. Dal Corso  v.5.0.99 svn rev. 10869
     Shape of augmentation charge: PSQ
     Using radial grid of 1191 points,  6 beta functions with: 
                l(1) =   0
                l(2) =   0
                l(3) =   1
                l(4) =   1
                l(5) =   2
                l(6) =   2
     Q(r) pseudized with 0 coefficients 


     atomic species   valence    mass     pseudopotential
        Cr            14.00    51.99610     Cr( 1.00)
        Fe            16.00    55.84500     Fe( 1.00)

      2 Sym. Ops., with inversion, found


                                    s                        frac. trans.

      isym =  1     identity                                     

 cryst.   s( 1) = (     1          0          0      )
                  (     0          1          0      )
                  (     0          0          1      )

 cart.    s( 1) = (  1.0000000 -0.0000000 -0.0000000 )
                  (  0.0000000  1.0000000  0.0000000 )
                  (  0.0000000  0.0000000  1.0000000 )


      isym =  2     inversion                                    

 cryst.   s( 2) = (    -1          0          0      )
                  (     0         -1          0      )
                  (     0          0         -1      )

 cart.    s( 2) = ( -1.0000000  0.0000000  0.0000000 )
                  (  0.0000000 -1.0000000 -0.0000000 )
                  (  0.0000000  0.0000000 -1.0000000 )


   Cartesian axes

     site n.     atom                  positions (alat units)
         1           Cr  tau(   1) = (   0.0000000   0.0000000   0.0000000  )
         2           Fe  tau(   2) = (   0.8082900   0.0510214   0.1348264  )
         3           Fe  tau(   3) = (   1.5776852   0.1745788   0.0449163  )
         4           Fe  tau(   4) = (   0.4223148  -0.0109625   0.1799307  )
         5           Fe  tau(   5) = (   1.1917100   0.1125949   0.0900207  )

   Crystallographic axes

     site n.     atom                  positions (cryst. coord.)
         1           Cr  tau(   1) = (  0.0000000  0.0000000  0.0000000  )
         2           Fe  tau(   2) = (  0.4003640  0.4003640  0.5996360  )
         3           Fe  tau(   3) = (  0.8002360  0.8002360  0.1997640  )
         4           Fe  tau(   4) = (  0.1997640  0.1997640  0.8002360  )
         5           Fe  tau(   5) = (  0.5996360  0.5996360  0.4003640  )

     number of k points=     1  Methfessel-Paxton smearing, width (Ry)=  0.0010
                       cart. coord. in units 2pi/alat
        k(    1) = (   0.0000000   0.0000000   0.0000000), wk =   2.0000000

                       cryst. coord.
        k(    1) = (   0.0000000   0.0000000   0.0000000), wk =   2.0000000

     Dense  grid:    12174 G-vectors     FFT dimensions: (  96,  96,  24)

     Smooth grid:     4280 G-vectors     FFT dimensions: (  72,  72,  18)

     Dynamical RAM for                 wfc:       0.38 MB

     Dynamical RAM for     wfc (w. buffer):       0.38 MB

     Dynamical RAM for           str. fact:       0.37 MB

     Dynamical RAM for           local pot:       0.00 MB

     Dynamical RAM for          nlocal pot:       0.74 MB

     Dynamical RAM for                qrad:       2.49 MB

     Dynamical RAM for          rho,v,vnew:       5.62 MB

     Dynamical RAM for               rhoin:       1.87 MB

     Dynamical RAM for            rho*nmix:       2.97 MB

     Dynamical RAM for           G-vectors:       0.73 MB

     Dynamical RAM for          h,s,v(r/c):       0.20 MB

     Dynamical RAM for          <psi|beta>:       0.03 MB

     Dynamical RAM for                 psi:       0.77 MB

     Dynamical RAM for                hpsi:       0.77 MB

     Dynamical RAM for                spsi:       0.77 MB

     Dynamical RAM for      wfcinit/wfcrot:       1.10 MB

     Dynamical RAM for           addusdens:      35.29 MB

     Dynamical RAM for          addusforce:      36.52 MB

     Dynamical RAM for         addusstress:      37.34 MB

     Estimated static dynamical RAM per process >      21.20 MB

     Estimated max dynamical RAM per process >      61.51 MB

     Check: negative core charge=   -0.000314

     Initial potential from superposition of free atoms

     starting charge      76.9982, renormalised to      78.0000

     negative rho (up, down):  1.824E-03 0.000E+00
     Starting wfcs are   62 randomized atomic wfcs
     Checking if some PAW data can be deallocated... 

     total cpu time spent up to now is        4.6 secs

     Self-consistent Calculation

     iteration #  1     ecut=    30.00 Ry     beta= 0.70
     Davidson diagonalization with overlap

---- Real-time Memory Report at c_bands before calling an iterative solver
           470 MiB given to the printing process from OS
             0 MiB allocation reported by mallinfo(arena+hblkhd)
        143237 MiB available memory on the node where the printing process lives
------------------
     ethr =  1.00E-02,  avg # of iterations =  5.0

     negative rho (up, down):  5.033E-04 0.000E+00

     total cpu time spent up to now is        5.3 secs

     total energy              =   -1214.77361781 Ry
     estimated scf accuracy    <     327.83729547 Ry

     iteration #  2     ecut=    30.00 Ry     beta= 0.70
     Davidson diagonalization with overlap

---- Real-time Memory Report at c_bands before calling an iterative solver
           489 MiB given to the printing process from OS
             0 MiB allocation reported by mallinfo(arena+hblkhd)
        143220 MiB available memory on the node where the printing process lives
------------------
     c_bands:  2 eigenvalues not converged
     ethr =  1.00E-02,  avg # of iterations = 20.0

     negative rho (up, down):  6.684E-04 0.000E+00

     total cpu time spent up to now is        7.0 secs

     total energy              =   -1453.39404411 Ry
     estimated scf accuracy    <    4445.60525137 Ry

     iteration #  3     ecut=    30.00 Ry     beta= 0.70
     Davidson diagonalization with overlap

---- Real-time Memory Report at c_bands before calling an iterative solver
           495 MiB given to the printing process from OS
             0 MiB allocation reported by mallinfo(arena+hblkhd)
        143192 MiB available memory on the node where the printing process lives
------------------
     ethr =  1.00E-02,  avg # of iterations =  9.0

     negative rho (up, down):  7.979E-04 0.000E+00

     total cpu time spent up to now is        8.0 secs

     total energy              =   -1488.52951722 Ry
     estimated scf accuracy    <    1042.91251897 Ry

     iteration #  4     ecut=    30.00 Ry     beta= 0.70
     Davidson diagonalization with overlap

---- Real-time Memory Report at c_bands before calling an iterative solver
           495 MiB given to the printing process from OS
             0 MiB allocation reported by mallinfo(arena+hblkhd)
        143191 MiB available memory on the node where the printing process lives
------------------
     ethr =  1.00E-02,  avg # of iterations =  7.0

     negative rho (up, down):  8.809E-07 0.000E+00

     total cpu time spent up to now is        8.8 secs

     total energy              =   -1507.66627877 Ry
     estimated scf accuracy    <     215.49330625 Ry

     iteration #  5     ecut=    30.00 Ry     beta= 0.70
     Davidson diagonalization with overlap

---- Real-time Memory Report at c_bands before calling an iterative solver
           496 MiB given to the printing process from OS
             0 MiB allocation reported by mallinfo(arena+hblkhd)
        143189 MiB available memory on the node where the printing process lives
------------------
     ethr =  1.00E-02,  avg # of iterations =  3.0

     total cpu time spent up to now is        9.4 secs

     total energy              =   -1507.10559571 Ry
     estimated scf accuracy    <     236.04536751 Ry

     iteration #  6     ecut=    30.00 Ry     beta= 0.70
     Davidson diagonalization with overlap

---- Real-time Memory Report at c_bands before calling an iterative solver
           496 MiB given to the printing process from OS
             0 MiB allocation reported by mallinfo(arena+hblkhd)
        143188 MiB available memory on the node where the printing process lives
------------------
     ethr =  1.00E-02,  avg # of iterations =  1.0

     negative rho (up, down):  1.205E-04 0.000E+00

     total cpu time spent up to now is       10.0 secs

     total energy              =   -1500.96686173 Ry
     estimated scf accuracy    <     183.02946430 Ry

     iteration #  7     ecut=    30.00 Ry     beta= 0.70
     Davidson diagonalization with overlap

---- Real-time Memory Report at c_bands before calling an iterative solver
           496 MiB given to the printing process from OS
             0 MiB allocation reported by mallinfo(arena+hblkhd)
        143188 MiB available memory on the node where the printing process lives
------------------
     ethr =  1.00E-02,  avg # of iterations =  4.0

     negative rho (up, down):  6.505E-05 0.000E+00

     total cpu time spent up to now is       10.7 secs

     total energy              =   -1502.57243394 Ry
     estimated scf accuracy    <     131.79359938 Ry

     iteration #  8     ecut=    30.00 Ry     beta= 0.70
     Davidson diagonalization with overlap

---- Real-time Memory Report at c_bands before calling an iterative solver
           496 MiB given to the printing process from OS
             0 MiB allocation reported by mallinfo(arena+hblkhd)
        143188 MiB available memory on the node where the printing process lives
------------------
     ethr =  1.00E-02,  avg # of iterations =  1.0

     negative rho (up, down):  4.966E-04 0.000E+00

     total cpu time spent up to now is       11.2 secs

     total energy              =   -1497.08074591 Ry
     estimated scf accuracy    <     136.21235160 Ry

     iteration #  9     ecut=    30.00 Ry     beta= 0.70
     Davidson diagonalization with overlap

---- Real-time Memory Report at c_bands before calling an iterative solver
           496 MiB given to the printing process from OS
             0 MiB allocation reported by mallinfo(arena+hblkhd)
        143188 MiB available memory on the node where the printing process lives
------------------
     ethr =  1.00E-02,  avg # of iterations =  1.0

     negative rho (up, down):  6.704E-04 0.000E+00

     total cpu time spent up to now is       11.8 secs

     total energy              =   -1495.04944449 Ry
     estimated scf accuracy    <     113.66924649 Ry

     iteration # 10     ecut=    30.00 Ry     beta= 0.70
     Davidson diagonalization with overlap

---- Real-time Memory Report at c_bands before calling an iterative solver
           496 MiB given to the printing process from OS
             0 MiB allocation reported by mallinfo(arena+hblkhd)
        143188 MiB available memory on the node where the printing process lives
------------------
     ethr =  1.00E-02,  avg # of iterations =  3.0

     negative rho (up, down):  8.638E-03 0.000E+00

     total cpu time spent up to now is       12.4 secs

     total energy              =   -1458.68659052 Ry
     estimated scf accuracy    <      99.34377752 Ry

     iteration # 11     ecut=    30.00 Ry     beta= 0.70
     Davidson diagonalization with overlap

---- Real-time Memory Report at c_bands before calling an iterative solver
           496 MiB given to the printing process from OS
             0 MiB allocation reported by mallinfo(arena+hblkhd)
        143188 MiB available memory on the node where the printing process lives
------------------
     ethr =  1.00E-02,  avg # of iterations =  7.0

     negative rho (up, down):  6.116E-04 0.000E+00

     total cpu time spent up to now is       13.3 secs

     total energy              =   -1493.46390570 Ry
     estimated scf accuracy    <     535.03553145 Ry

     iteration # 12     ecut=    30.00 Ry     beta= 0.70
     Davidson diagonalization with overlap

---- Real-time Memory Report at c_bands before calling an iterative solver
           496 MiB given to the printing process from OS
             0 MiB allocation reported by mallinfo(arena+hblkhd)
        143188 MiB available memory on the node where the printing process lives
------------------
     ethr =  1.00E-02,  avg # of iterations =  5.0

     negative rho (up, down):  1.783E-03 0.000E+00

     total cpu time spent up to now is       14.1 secs

     total energy              =   -1496.79571008 Ry
     estimated scf accuracy    <     277.28538689 Ry

     iteration # 13     ecut=    30.00 Ry     beta= 0.70
     Davidson diagonalization with overlap

---- Real-time Memory Report at c_bands before calling an iterative solver
           496 MiB given to the printing process from OS
             0 MiB allocation reported by mallinfo(arena+hblkhd)
        143191 MiB available memory on the node where the printing process lives
------------------
     ethr =  1.00E-02,  avg # of iterations =  3.0

     negative rho (up, down):  1.856E-03 0.000E+00

     total cpu time spent up to now is       14.7 secs

     total energy              =   -1492.54308870 Ry
     estimated scf accuracy    <     244.74834079 Ry

     iteration # 14     ecut=    30.00 Ry     beta= 0.70
     Davidson diagonalization with overlap

---- Real-time Memory Report at c_bands before calling an iterative solver
           496 MiB given to the printing process from OS
             0 MiB allocation reported by mallinfo(arena+hblkhd)
        143168 MiB available memory on the node where the printing process lives
------------------
     ethr =  1.00E-02,  avg # of iterations =  3.0

     negative rho (up, down):  2.454E-03 0.000E+00

     total cpu time spent up to now is       15.3 secs

     total energy              =   -1491.58419527 Ry
     estimated scf accuracy    <     139.93633414 Ry

     iteration # 15     ecut=    30.00 Ry     beta= 0.70
     Davidson diagonalization with overlap

---- Real-time Memory Report at c_bands before calling an iterative solver
           496 MiB given to the printing process from OS
             0 MiB allocation reported by mallinfo(arena+hblkhd)
        143177 MiB available memory on the node where the printing process lives
------------------
     ethr =  1.00E-02,  avg # of iterations =  1.0

     negative rho (up, down):  1.896E-03 0.000E+00

     total cpu time spent up to now is       15.9 secs

     total energy              =   -1491.24830861 Ry
     estimated scf accuracy    <     121.18842980 Ry

     iteration # 16     ecut=    30.00 Ry     beta= 0.70
     Davidson diagonalization with overlap

---- Real-time Memory Report at c_bands before calling an iterative solver
           496 MiB given to the printing process from OS
             0 MiB allocation reported by mallinfo(arena+hblkhd)
        143178 MiB available memory on the node where the printing process lives
------------------
     ethr =  1.00E-02,  avg # of iterations =  1.0

     negative rho (up, down):  2.001E-03 0.000E+00

     total cpu time spent up to now is       16.4 secs

     total energy              =   -1492.59415336 Ry
     estimated scf accuracy    <      55.52638180 Ry

     iteration # 17     ecut=    30.00 Ry     beta= 0.70
     Davidson diagonalization with overlap

---- Real-time Memory Report at c_bands before calling an iterative solver
           496 MiB given to the printing process from OS
             0 MiB allocation reported by mallinfo(arena+hblkhd)
        143178 MiB available memory on the node where the printing process lives
------------------
     ethr =  1.00E-02,  avg # of iterations =  1.0

     negative rho (up, down):  1.629E-03 0.000E+00

     total cpu time spent up to now is       17.0 secs

     total energy              =   -1489.05440172 Ry
     estimated scf accuracy    <     141.66178414 Ry

     iteration # 18     ecut=    30.00 Ry     beta= 0.70
     Davidson diagonalization with overlap

---- Real-time Memory Report at c_bands before calling an iterative solver
           496 MiB given to the printing process from OS
             0 MiB allocation reported by mallinfo(arena+hblkhd)
        143176 MiB available memory on the node where the printing process lives
------------------
     ethr =  1.00E-02,  avg # of iterations =  1.0

     negative rho (up, down):  1.588E-03 0.000E+00

     total cpu time spent up to now is       17.6 secs

     total energy              =   -1491.68460895 Ry
     estimated scf accuracy    <      16.27803481 Ry

     iteration # 19     ecut=    30.00 Ry     beta= 0.70
     Davidson diagonalization with overlap

---- Real-time Memory Report at c_bands before calling an iterative solver
           496 MiB given to the printing process from OS
             0 MiB allocation reported by mallinfo(arena+hblkhd)
        143176 MiB available memory on the node where the printing process lives
------------------
     ethr =  1.00E-02,  avg # of iterations =  1.0

     negative rho (up, down):  2.509E-03 0.000E+00

     total cpu time spent up to now is       18.2 secs

     total energy              =   -1492.06013966 Ry
     estimated scf accuracy    <       7.10904969 Ry

     iteration # 20     ecut=    30.00 Ry     beta= 0.70
     Davidson diagonalization with overlap

---- Real-time Memory Report at c_bands before calling an iterative solver
           496 MiB given to the printing process from OS
             0 MiB allocation reported by mallinfo(arena+hblkhd)
        143177 MiB available memory on the node where the printing process lives
------------------
     ethr =  9.11E-03,  avg # of iterations =  4.0

     negative rho (up, down):  2.134E-03 0.000E+00

     total cpu time spent up to now is       19.0 secs

     total energy              =   -1492.03886376 Ry
     estimated scf accuracy    <     143.50469803 Ry

     iteration # 21     ecut=    30.00 Ry     beta= 0.70
     Davidson diagonalization with overlap

---- Real-time Memory Report at c_bands before calling an iterative solver
           496 MiB given to the printing process from OS
             0 MiB allocation reported by mallinfo(arena+hblkhd)
        143176 MiB available memory on the node where the printing process lives
------------------
     ethr =  9.11E-03,  avg # of iterations =  2.0

     negative rho (up, down):  2.103E-03 0.000E+00

     total cpu time spent up to now is       19.6 secs

     total energy              =   -1491.62950247 Ry
     estimated scf accuracy    <      63.29768276 Ry

     iteration # 22     ecut=    30.00 Ry     beta= 0.70
     Davidson diagonalization with overlap

---- Real-time Memory Report at c_bands before calling an iterative solver
           496 MiB given to the printing process from OS
             0 MiB allocation reported by mallinfo(arena+hblkhd)
        143176 MiB available memory on the node where the printing process lives
------------------
     ethr =  9.11E-03,  avg # of iterations =  1.0

     negative rho (up, down):  2.053E-03 0.000E+00

     total cpu time spent up to now is       20.2 secs

     total energy              =   -1492.10824131 Ry
     estimated scf accuracy    <      16.19259234 Ry

     iteration # 23     ecut=    30.00 Ry     beta= 0.70
     Davidson diagonalization with overlap

---- Real-time Memory Report at c_bands before calling an iterative solver
           496 MiB given to the printing process from OS
             0 MiB allocation reported by mallinfo(arena+hblkhd)
        143176 MiB available memory on the node where the printing process lives
------------------
     ethr =  9.11E-03,  avg # of iterations =  1.0

     negative rho (up, down):  1.936E-03 0.000E+00

     total cpu time spent up to now is       20.8 secs

     total energy              =   -1491.73543020 Ry
     estimated scf accuracy    <      62.34615425 Ry

     iteration # 24     ecut=    30.00 Ry     beta= 0.70
     Davidson diagonalization with overlap

---- Real-time Memory Report at c_bands before calling an iterative solver
           496 MiB given to the printing process from OS
             0 MiB allocation reported by mallinfo(arena+hblkhd)
        143177 MiB available memory on the node where the printing process lives
------------------
     ethr =  9.11E-03,  avg # of iterations =  1.0

     negative rho (up, down):  1.932E-03 0.000E+00

     total cpu time spent up to now is       21.3 secs

     total energy              =   -1491.92646250 Ry
     estimated scf accuracy    <      19.44055097 Ry

     iteration # 25     ecut=    30.00 Ry     beta= 0.70
     Davidson diagonalization with overlap

---- Real-time Memory Report at c_bands before calling an iterative solver
           496 MiB given to the printing process from OS
             0 MiB allocation reported by mallinfo(arena+hblkhd)
        143177 MiB available memory on the node where the printing process lives
------------------
     ethr =  9.11E-03,  avg # of iterations =  1.0

     negative rho (up, down):  1.854E-03 0.000E+00

     total cpu time spent up to now is       21.9 secs

     total energy              =   -1492.02412791 Ry
     estimated scf accuracy    <      18.78957094 Ry

     iteration # 26     ecut=    30.00 Ry     beta= 0.70
     Davidson diagonalization with overlap

---- Real-time Memory Report at c_bands before calling an iterative solver
           496 MiB given to the printing process from OS
             0 MiB allocation reported by mallinfo(arena+hblkhd)
        143156 MiB available memory on the node where the printing process lives
------------------
     ethr =  9.11E-03,  avg # of iterations =  1.0

     negative rho (up, down):  2.261E-03 0.000E+00

     total cpu time spent up to now is       22.5 secs

     total energy              =   -1491.62352695 Ry
     estimated scf accuracy    <      25.06486508 Ry

     iteration # 27     ecut=    30.00 Ry     beta= 0.70
     Davidson diagonalization with overlap

---- Real-time Memory Report at c_bands before calling an iterative solver
           496 MiB given to the printing process from OS
             0 MiB allocation reported by mallinfo(arena+hblkhd)
        143155 MiB available memory on the node where the printing process lives
------------------
     ethr =  9.11E-03,  avg # of iterations =  1.0

     negative rho (up, down):  2.194E-03 0.000E+00

     total cpu time spent up to now is       23.1 secs

     total energy              =   -1491.67710207 Ry
     estimated scf accuracy    <      28.25624327 Ry

     iteration # 28     ecut=    30.00 Ry     beta= 0.70
     Davidson diagonalization with overlap

---- Real-time Memory Report at c_bands before calling an iterative solver
           496 MiB given to the printing process from OS
             0 MiB allocation reported by mallinfo(arena+hblkhd)
        143156 MiB available memory on the node where the printing process lives
------------------
     ethr =  9.11E-03,  avg # of iterations =  3.0

     negative rho (up, down):  2.142E-03 0.000E+00

     total cpu time spent up to now is       23.7 secs

     total energy              =   -1491.93071163 Ry
     estimated scf accuracy    <      37.23810474 Ry

     iteration # 29     ecut=    30.00 Ry     beta= 0.70
     Davidson diagonalization with overlap

---- Real-time Memory Report at c_bands before calling an iterative solver
           496 MiB given to the printing process from OS
             0 MiB allocation reported by mallinfo(arena+hblkhd)
        143156 MiB available memory on the node where the printing process lives
------------------
     ethr =  9.11E-03,  avg # of iterations =  2.0

     negative rho (up, down):  2.264E-03 0.000E+00

     total cpu time spent up to now is       24.4 secs

     total energy              =   -1491.75264881 Ry
     estimated scf accuracy    <      22.16617191 Ry

     iteration # 30     ecut=    30.00 Ry     beta= 0.70
     Davidson diagonalization with overlap

---- Real-time Memory Report at c_bands before calling an iterative solver
           496 MiB given to the printing process from OS
             0 MiB allocation reported by mallinfo(arena+hblkhd)
        143153 MiB available memory on the node where the printing process lives
------------------
     ethr =  9.11E-03,  avg # of iterations =  1.0

     negative rho (up, down):  2.257E-03 0.000E+00

     total cpu time spent up to now is       24.9 secs

     total energy              =   -1491.77186047 Ry
     estimated scf accuracy    <      13.14400360 Ry

     iteration # 31     ecut=    30.00 Ry     beta= 0.70
     Davidson diagonalization with overlap

---- Real-time Memory Report at c_bands before calling an iterative solver
           496 MiB given to the printing process from OS
             0 MiB allocation reported by mallinfo(arena+hblkhd)
        143152 MiB available memory on the node where the printing process lives
------------------
     ethr =  9.11E-03,  avg # of iterations =  1.0

     negative rho (up, down):  2.350E-03 0.000E+00

     total cpu time spent up to now is       25.5 secs

     total energy              =   -1491.64408925 Ry
     estimated scf accuracy    <      11.99649610 Ry

     iteration # 32     ecut=    30.00 Ry     beta= 0.70
     Davidson diagonalization with overlap

---- Real-time Memory Report at c_bands before calling an iterative solver
           496 MiB given to the printing process from OS
             0 MiB allocation reported by mallinfo(arena+hblkhd)
        143153 MiB available memory on the node where the printing process lives
------------------
     ethr =  9.11E-03,  avg # of iterations =  1.0

     negative rho (up, down):  2.216E-03 0.000E+00

     total cpu time spent up to now is       26.1 secs

     total energy              =   -1491.73994566 Ry
     estimated scf accuracy    <      13.35354584 Ry

     iteration # 33     ecut=    30.00 Ry     beta= 0.70
     Davidson diagonalization with overlap

---- Real-time Memory Report at c_bands before calling an iterative solver
           496 MiB given to the printing process from OS
             0 MiB allocation reported by mallinfo(arena+hblkhd)
        143153 MiB available memory on the node where the printing process lives
------------------
     ethr =  9.11E-03,  avg # of iterations =  1.0

     negative rho (up, down):  2.181E-03 0.000E+00

     total cpu time spent up to now is       26.7 secs

     total energy              =   -1491.74812054 Ry
     estimated scf accuracy    <       8.60277027 Ry

     iteration # 34     ecut=    30.00 Ry     beta= 0.70
     Davidson diagonalization with overlap

---- Real-time Memory Report at c_bands before calling an iterative solver
           496 MiB given to the printing process from OS
             0 MiB allocation reported by mallinfo(arena+hblkhd)
        143153 MiB available memory on the node where the printing process lives
------------------
     ethr =  9.11E-03,  avg # of iterations =  1.0

     negative rho (up, down):  2.244E-03 0.000E+00

     total cpu time spent up to now is       27.3 secs

     total energy              =   -1491.75820968 Ry
     estimated scf accuracy    <       2.57540834 Ry

     iteration # 35     ecut=    30.00 Ry     beta= 0.70
     Davidson diagonalization with overlap

---- Real-time Memory Report at c_bands before calling an iterative solver
           496 MiB given to the printing process from OS
             0 MiB allocation reported by mallinfo(arena+hblkhd)
        143124 MiB available memory on the node where the printing process lives
------------------
     ethr =  3.30E-03,  avg # of iterations =  1.0

     negative rho (up, down):  2.131E-03 0.000E+00

     total cpu time spent up to now is       27.9 secs

     total energy              =   -1491.78557045 Ry
     estimated scf accuracy    <      10.70915907 Ry

     iteration # 36     ecut=    30.00 Ry     beta= 0.70
     Davidson diagonalization with overlap

---- Real-time Memory Report at c_bands before calling an iterative solver
           496 MiB given to the printing process from OS
             0 MiB allocation reported by mallinfo(arena+hblkhd)
        143111 MiB available memory on the node where the printing process lives
------------------
     ethr =  3.30E-03,  avg # of iterations =  1.0

     negative rho (up, down):  2.148E-03 0.000E+00

     total cpu time spent up to now is       28.5 secs

     total energy              =   -1491.74590347 Ry
     estimated scf accuracy    <      12.66765257 Ry

     iteration # 37     ecut=    30.00 Ry     beta= 0.70
     Davidson diagonalization with overlap

---- Real-time Memory Report at c_bands before calling an iterative solver
           496 MiB given to the printing process from OS
             0 MiB allocation reported by mallinfo(arena+hblkhd)
        143111 MiB available memory on the node where the printing process lives
------------------
     ethr =  3.30E-03,  avg # of iterations =  1.0

     negative rho (up, down):  2.167E-03 0.000E+00

     total cpu time spent up to now is       29.1 secs

     total energy              =   -1491.78405012 Ry
     estimated scf accuracy    <       5.64237241 Ry

     iteration # 38     ecut=    30.00 Ry     beta= 0.70
     Davidson diagonalization with overlap

---- Real-time Memory Report at c_bands before calling an iterative solver
           496 MiB given to the printing process from OS
             0 MiB allocation reported by mallinfo(arena+hblkhd)
        143110 MiB available memory on the node where the printing process lives
------------------
     ethr =  3.30E-03,  avg # of iterations =  1.0

     negative rho (up, down):  2.172E-03 0.000E+00

     total cpu time spent up to now is       29.6 secs

     total energy              =   -1491.76357260 Ry
     estimated scf accuracy    <       4.80472358 Ry

     iteration # 39     ecut=    30.00 Ry     beta= 0.70
     Davidson diagonalization with overlap

---- Real-time Memory Report at c_bands before calling an iterative solver
           496 MiB given to the printing process from OS
             0 MiB allocation reported by mallinfo(arena+hblkhd)
        143107 MiB available memory on the node where the printing process lives
------------------
     ethr =  3.30E-03,  avg # of iterations =  1.0

     negative rho (up, down):  2.172E-03 0.000E+00

     total cpu time spent up to now is       30.2 secs

     total energy              =   -1491.75352109 Ry
     estimated scf accuracy    <       4.49496673 Ry

     iteration # 40     ecut=    30.00 Ry     beta= 0.70
     Davidson diagonalization with overlap

---- Real-time Memory Report at c_bands before calling an iterative solver
           496 MiB given to the printing process from OS
             0 MiB allocation reported by mallinfo(arena+hblkhd)
        143106 MiB available memory on the node where the printing process lives
------------------
     ethr =  3.30E-03,  avg # of iterations =  1.0

     negative rho (up, down):  2.273E-03 0.000E+00

     total cpu time spent up to now is       30.8 secs

     total energy              =   -1491.44330790 Ry
     estimated scf accuracy    <       5.06349002 Ry

     iteration # 41     ecut=    30.00 Ry     beta= 0.70
     Davidson diagonalization with overlap

---- Real-time Memory Report at c_bands before calling an iterative solver
           496 MiB given to the printing process from OS
             0 MiB allocation reported by mallinfo(arena+hblkhd)
        143106 MiB available memory on the node where the printing process lives
------------------
     ethr =  3.30E-03,  avg # of iterations =  1.0

     negative rho (up, down):  2.305E-03 0.000E+00

     total cpu time spent up to now is       31.4 secs

     total energy              =   -1491.60886393 Ry
     estimated scf accuracy    <      37.84746539 Ry

     iteration # 42     ecut=    30.00 Ry     beta= 0.70
     Davidson diagonalization with overlap

---- Real-time Memory Report at c_bands before calling an iterative solver
           496 MiB given to the printing process from OS
             0 MiB allocation reported by mallinfo(arena+hblkhd)
        143107 MiB available memory on the node where the printing process lives
------------------
     ethr =  3.30E-03,  avg # of iterations =  2.0

     negative rho (up, down):  2.384E-03 0.000E+00

     total cpu time spent up to now is       32.0 secs

     total energy              =   -1491.75576577 Ry
     estimated scf accuracy    <      12.99737330 Ry

     iteration # 43     ecut=    30.00 Ry     beta= 0.70
     Davidson diagonalization with overlap

---- Real-time Memory Report at c_bands before calling an iterative solver
           496 MiB given to the printing process from OS
             0 MiB allocation reported by mallinfo(arena+hblkhd)
        143107 MiB available memory on the node where the printing process lives
------------------
     ethr =  3.30E-03,  avg # of iterations =  1.0

     negative rho (up, down):  2.302E-03 0.000E+00

     total cpu time spent up to now is       32.6 secs

     total energy              =   -1491.65110749 Ry
     estimated scf accuracy    <      19.54427619 Ry

     iteration # 44     ecut=    30.00 Ry     beta= 0.70
     Davidson diagonalization with overlap

---- Real-time Memory Report at c_bands before calling an iterative solver
           496 MiB given to the printing process from OS
             0 MiB allocation reported by mallinfo(arena+hblkhd)
        143107 MiB available memory on the node where the printing process lives
------------------
     ethr =  3.30E-03,  avg # of iterations =  1.0

     negative rho (up, down):  2.342E-03 0.000E+00

     total cpu time spent up to now is       33.2 secs

     total energy              =   -1491.74597253 Ry
     estimated scf accuracy    <      12.80556519 Ry

     iteration # 45     ecut=    30.00 Ry     beta= 0.70
     Davidson diagonalization with overlap

---- Real-time Memory Report at c_bands before calling an iterative solver
           496 MiB given to the printing process from OS
             0 MiB allocation reported by mallinfo(arena+hblkhd)
        143107 MiB available memory on the node where the printing process lives
------------------
     ethr =  3.30E-03,  avg # of iterations =  1.0

     negative rho (up, down):  2.237E-03 0.000E+00

     total cpu time spent up to now is       33.8 secs

     total energy              =   -1491.76556367 Ry
     estimated scf accuracy    <       4.63069212 Ry

     iteration # 46     ecut=    30.00 Ry     beta= 0.70
     Davidson diagonalization with overlap

---- Real-time Memory Report at c_bands before calling an iterative solver
           496 MiB given to the printing process from OS
             0 MiB allocation reported by mallinfo(arena+hblkhd)
        143108 MiB available memory on the node where the printing process lives
------------------
     ethr =  3.30E-03,  avg # of iterations =  1.0

     negative rho (up, down):  2.236E-03 0.000E+00

     total cpu time spent up to now is       34.4 secs

     total energy              =   -1491.71678030 Ry
     estimated scf accuracy    <      18.89389446 Ry

     iteration # 47     ecut=    30.00 Ry     beta= 0.70
     Davidson diagonalization with overlap

---- Real-time Memory Report at c_bands before calling an iterative solver
           496 MiB given to the printing process from OS
             0 MiB allocation reported by mallinfo(arena+hblkhd)
        143108 MiB available memory on the node where the printing process lives
------------------
     ethr =  3.30E-03,  avg # of iterations =  1.0

     negative rho (up, down):  2.272E-03 0.000E+00

     total cpu time spent up to now is       34.9 secs

     total energy              =   -1491.74748549 Ry
     estimated scf accuracy    <       8.16434537 Ry

     iteration # 48     ecut=    30.00 Ry     beta= 0.70
     Davidson diagonalization with overlap

---- Real-time Memory Report at c_bands before calling an iterative solver
           496 MiB given to the printing process from OS
             0 MiB allocation reported by mallinfo(arena+hblkhd)
        143108 MiB available memory on the node where the printing process lives
------------------
     ethr =  3.30E-03,  avg # of iterations =  1.0

     negative rho (up, down):  2.272E-03 0.000E+00

     total cpu time spent up to now is       35.5 secs

     total energy              =   -1491.72644205 Ry
     estimated scf accuracy    <       8.84076983 Ry

     iteration # 49     ecut=    30.00 Ry     beta= 0.70
     Davidson diagonalization with overlap

---- Real-time Memory Report at c_bands before calling an iterative solver
           496 MiB given to the printing process from OS
             0 MiB allocation reported by mallinfo(arena+hblkhd)
        143128 MiB available memory on the node where the printing process lives
------------------
     ethr =  3.30E-03,  avg # of iterations =  1.0

     negative rho (up, down):  2.210E-03 0.000E+00

     total cpu time spent up to now is       36.1 secs

     total energy              =   -1491.68997889 Ry
     estimated scf accuracy    <       5.87184405 Ry

     iteration # 50     ecut=    30.00 Ry     beta= 0.70
     Davidson diagonalization with overlap

---- Real-time Memory Report at c_bands before calling an iterative solver
           496 MiB given to the printing process from OS
             0 MiB allocation reported by mallinfo(arena+hblkhd)
        143139 MiB available memory on the node where the printing process lives
------------------
     ethr =  3.30E-03,  avg # of iterations =  1.0

     negative rho (up, down):  2.258E-03 0.000E+00

     total cpu time spent up to now is       36.7 secs

     total energy              =   -1491.74646249 Ry
     estimated scf accuracy    <       4.38437123 Ry

     iteration # 51     ecut=    30.00 Ry     beta= 0.70
     Davidson diagonalization with overlap

---- Real-time Memory Report at c_bands before calling an iterative solver
           496 MiB given to the printing process from OS
             0 MiB allocation reported by mallinfo(arena+hblkhd)
        143133 MiB available memory on the node where the printing process lives
------------------
     ethr =  3.30E-03,  avg # of iterations =  1.0

     negative rho (up, down):  2.238E-03 0.000E+00

     total cpu time spent up to now is       37.3 secs

     total energy              =   -1491.75701293 Ry
     estimated scf accuracy    <       3.48243230 Ry

     iteration # 52     ecut=    30.00 Ry     beta= 0.70
     Davidson diagonalization with overlap

---- Real-time Memory Report at c_bands before calling an iterative solver
           496 MiB given to the printing process from OS
             0 MiB allocation reported by mallinfo(arena+hblkhd)
        143133 MiB available memory on the node where the printing process lives
------------------
     ethr =  3.30E-03,  avg # of iterations =  1.0

     negative rho (up, down):  2.326E-03 0.000E+00

     total cpu time spent up to now is       37.9 secs

     total energy              =   -1491.48275485 Ry
     estimated scf accuracy    <       2.40101656 Ry

     iteration # 53     ecut=    30.00 Ry     beta= 0.70
     Davidson diagonalization with overlap

---- Real-time Memory Report at c_bands before calling an iterative solver
           496 MiB given to the printing process from OS
             0 MiB allocation reported by mallinfo(arena+hblkhd)
        143133 MiB available memory on the node where the printing process lives
------------------
     ethr =  3.08E-03,  avg # of iterations =  7.0

     negative rho (up, down):  2.066E-03 0.000E+00

     total cpu time spent up to now is       38.6 secs

     total energy              =   -1490.40791969 Ry
     estimated scf accuracy    <      93.89084097 Ry

     iteration # 54     ecut=    30.00 Ry     beta= 0.70
     Davidson diagonalization with overlap

---- Real-time Memory Report at c_bands before calling an iterative solver
           496 MiB given to the printing process from OS
             0 MiB allocation reported by mallinfo(arena+hblkhd)
        143133 MiB available memory on the node where the printing process lives
------------------
     ethr =  3.08E-03,  avg # of iterations =  5.0

     negative rho (up, down):  2.270E-03 0.000E+00

     total cpu time spent up to now is       39.2 secs

     total energy              =   -1491.60037226 Ry
     estimated scf accuracy    <      30.54434961 Ry

     iteration # 55     ecut=    30.00 Ry     beta= 0.70
     Davidson diagonalization with overlap

---- Real-time Memory Report at c_bands before calling an iterative solver
           496 MiB given to the printing process from OS
             0 MiB allocation reported by mallinfo(arena+hblkhd)
        143133 MiB available memory on the node where the printing process lives
------------------
     ethr =  3.08E-03,  avg # of iterations =  1.0

     negative rho (up, down):  2.113E-03 0.000E+00

     total cpu time spent up to now is       39.7 secs

     total energy              =   -1491.63453718 Ry
     estimated scf accuracy    <      14.31236671 Ry

     iteration # 56     ecut=    30.00 Ry     beta= 0.70
     Davidson diagonalization with overlap

---- Real-time Memory Report at c_bands before calling an iterative solver
           496 MiB given to the printing process from OS
             0 MiB allocation reported by mallinfo(arena+hblkhd)
        143133 MiB available memory on the node where the printing process lives
------------------
     ethr =  3.08E-03,  avg # of iterations =  1.0

     negative rho (up, down):  2.245E-03 0.000E+00

     total cpu time spent up to now is       40.3 secs

     total energy              =   -1491.72848700 Ry
     estimated scf accuracy    <       3.38067820 Ry

     iteration # 57     ecut=    30.00 Ry     beta= 0.70
     Davidson diagonalization with overlap

---- Real-time Memory Report at c_bands before calling an iterative solver
           496 MiB given to the printing process from OS
             0 MiB allocation reported by mallinfo(arena+hblkhd)
        143132 MiB available memory on the node where the printing process lives
------------------
     ethr =  3.08E-03,  avg # of iterations =  1.0

     negative rho (up, down):  2.162E-03 0.000E+00

     total cpu time spent up to now is       40.9 secs

     total energy              =   -1491.73612708 Ry
     estimated scf accuracy    <       7.56392998 Ry

     iteration # 58     ecut=    30.00 Ry     beta= 0.70
     Davidson diagonalization with overlap

---- Real-time Memory Report at c_bands before calling an iterative solver
           496 MiB given to the printing process from OS
             0 MiB allocation reported by mallinfo(arena+hblkhd)
        143133 MiB available memory on the node where the printing process lives
------------------
     ethr =  3.08E-03,  avg # of iterations =  1.0

     negative rho (up, down):  2.166E-03 0.000E+00

     total cpu time spent up to now is       41.5 secs

     total energy              =   -1491.69409063 Ry
     estimated scf accuracy    <       4.05163382 Ry

     iteration # 59     ecut=    30.00 Ry     beta= 0.70
     Davidson diagonalization with overlap

---- Real-time Memory Report at c_bands before calling an iterative solver
           496 MiB given to the printing process from OS
             0 MiB allocation reported by mallinfo(arena+hblkhd)
        143156 MiB available memory on the node where the printing process lives
------------------
     ethr =  3.08E-03,  avg # of iterations =  1.0

     negative rho (up, down):  2.245E-03 0.000E+00

     total cpu time spent up to now is       42.1 secs

     total energy              =   -1491.74078963 Ry
     estimated scf accuracy    <       7.26179129 Ry

     iteration # 60     ecut=    30.00 Ry     beta= 0.70
     Davidson diagonalization with overlap

---- Real-time Memory Report at c_bands before calling an iterative solver
           496 MiB given to the printing process from OS
             0 MiB allocation reported by mallinfo(arena+hblkhd)
        143165 MiB available memory on the node where the printing process lives
------------------
     ethr =  3.08E-03,  avg # of iterations =  1.0

     negative rho (up, down):  2.254E-03 0.000E+00

     total cpu time spent up to now is       42.7 secs

     total energy              =   -1491.77098723 Ry
     estimated scf accuracy    <       1.92738572 Ry

     iteration # 61     ecut=    30.00 Ry     beta= 0.70
     Davidson diagonalization with overlap

---- Real-time Memory Report at c_bands before calling an iterative solver
           496 MiB given to the printing process from OS
             0 MiB allocation reported by mallinfo(arena+hblkhd)
        143159 MiB available memory on the node where the printing process lives
------------------
     ethr =  2.47E-03,  avg # of iterations =  1.0

     negative rho (up, down):  2.354E-03 0.000E+00

     total cpu time spent up to now is       43.3 secs

     total energy              =   -1491.77140409 Ry
     estimated scf accuracy    <       2.37817885 Ry

     iteration # 62     ecut=    30.00 Ry     beta= 0.70
     Davidson diagonalization with overlap

---- Real-time Memory Report at c_bands before calling an iterative solver
           496 MiB given to the printing process from OS
             0 MiB allocation reported by mallinfo(arena+hblkhd)
        143159 MiB available memory on the node where the printing process lives
------------------
     ethr =  2.47E-03,  avg # of iterations =  1.0

     negative rho (up, down):  2.289E-03 0.000E+00

     total cpu time spent up to now is       44.0 secs

     total energy              =   -1491.71301803 Ry
     estimated scf accuracy    <       5.96602154 Ry

     iteration # 63     ecut=    30.00 Ry     beta= 0.70
     Davidson diagonalization with overlap

---- Real-time Memory Report at c_bands before calling an iterative solver
           496 MiB given to the printing process from OS
             0 MiB allocation reported by mallinfo(arena+hblkhd)
        143158 MiB available memory on the node where the printing process lives
------------------
     ethr =  2.47E-03,  avg # of iterations =  6.0

     negative rho (up, down):  2.423E-03 0.000E+00

     total cpu time spent up to now is       44.6 secs

     total energy              =   -1491.85063659 Ry
     estimated scf accuracy    <      14.95319753 Ry

     iteration # 64     ecut=    30.00 Ry     beta= 0.70
     Davidson diagonalization with overlap

---- Real-time Memory Report at c_bands before calling an iterative solver
           496 MiB given to the printing process from OS
             0 MiB allocation reported by mallinfo(arena+hblkhd)
        143158 MiB available memory on the node where the printing process lives
------------------
     ethr =  2.47E-03,  avg # of iterations =  5.0

     negative rho (up, down):  2.368E-03 0.000E+00

     total cpu time spent up to now is       45.2 secs

     total energy              =   -1491.68206740 Ry
     estimated scf accuracy    <      16.97862893 Ry

     iteration # 65     ecut=    30.00 Ry     beta= 0.70
     Davidson diagonalization with overlap

---- Real-time Memory Report at c_bands before calling an iterative solver
           496 MiB given to the printing process from OS
             0 MiB allocation reported by mallinfo(arena+hblkhd)
        143158 MiB available memory on the node where the printing process lives
------------------
     ethr =  2.47E-03,  avg # of iterations =  1.0

     negative rho (up, down):  2.359E-03 0.000E+00

     total cpu time spent up to now is       45.8 secs

     total energy              =   -1491.78585250 Ry
     estimated scf accuracy    <      11.63570084 Ry

     iteration # 66     ecut=    30.00 Ry     beta= 0.70
     Davidson diagonalization with overlap

---- Real-time Memory Report at c_bands before calling an iterative solver
           496 MiB given to the printing process from OS
             0 MiB allocation reported by mallinfo(arena+hblkhd)
        143157 MiB available memory on the node where the printing process lives
------------------
     ethr =  2.47E-03,  avg # of iterations =  1.0

     negative rho (up, down):  2.338E-03 0.000E+00

     total cpu time spent up to now is       46.4 secs

     total energy              =   -1491.79455692 Ry
     estimated scf accuracy    <       9.26824944 Ry

     iteration # 67     ecut=    30.00 Ry     beta= 0.70
     Davidson diagonalization with overlap

---- Real-time Memory Report at c_bands before calling an iterative solver
           496 MiB given to the printing process from OS
             0 MiB allocation reported by mallinfo(arena+hblkhd)
        143158 MiB available memory on the node where the printing process lives
------------------
     ethr =  2.47E-03,  avg # of iterations =  1.0

     negative rho (up, down):  2.347E-03 0.000E+00

     total cpu time spent up to now is       47.0 secs

     total energy              =   -1491.80260180 Ry
     estimated scf accuracy    <      13.59683271 Ry

     iteration # 68     ecut=    30.00 Ry     beta= 0.70
     Davidson diagonalization with overlap

---- Real-time Memory Report at c_bands before calling an iterative solver
           496 MiB given to the printing process from OS
             0 MiB allocation reported by mallinfo(arena+hblkhd)
        143163 MiB available memory on the node where the printing process lives
------------------
     ethr =  2.47E-03,  avg # of iterations =  1.0

     negative rho (up, down):  2.327E-03 0.000E+00

     total cpu time spent up to now is       47.6 secs

     total energy              =   -1491.57841634 Ry
     estimated scf accuracy    <      15.44407942 Ry

     iteration # 69     ecut=    30.00 Ry     beta= 0.70
     Davidson diagonalization with overlap

---- Real-time Memory Report at c_bands before calling an iterative solver
           496 MiB given to the printing process from OS
             0 MiB allocation reported by mallinfo(arena+hblkhd)
        143165 MiB available memory on the node where the printing process lives
------------------
     ethr =  2.47E-03,  avg # of iterations =  2.0

     negative rho (up, down):  2.307E-03 0.000E+00

     total cpu time spent up to now is       48.2 secs

     total energy              =   -1491.75733611 Ry
     estimated scf accuracy    <      18.54904278 Ry

     iteration # 70     ecut=    30.00 Ry     beta= 0.70
     Davidson diagonalization with overlap

---- Real-time Memory Report at c_bands before calling an iterative solver
           496 MiB given to the printing process from OS
             0 MiB allocation reported by mallinfo(arena+hblkhd)
        143165 MiB available memory on the node where the printing process lives
------------------
     ethr =  2.47E-03,  avg # of iterations =  1.0

     negative rho (up, down):  2.169E-03 0.000E+00

     total cpu time spent up to now is       48.8 secs

     total energy              =   -1491.73852545 Ry
     estimated scf accuracy    <       4.04121041 Ry

     iteration # 71     ecut=    30.00 Ry     beta= 0.70
     Davidson diagonalization with overlap

---- Real-time Memory Report at c_bands before calling an iterative solver
           496 MiB given to the printing process from OS
             0 MiB allocation reported by mallinfo(arena+hblkhd)
        143165 MiB available memory on the node where the printing process lives
------------------
     ethr =  2.47E-03,  avg # of iterations =  1.0

     negative rho (up, down):  2.254E-03 0.000E+00

     total cpu time spent up to now is       49.4 secs

     total energy              =   -1491.65049788 Ry
     estimated scf accuracy    <       2.16572141 Ry

     iteration # 72     ecut=    30.00 Ry     beta= 0.70
     Davidson diagonalization with overlap

---- Real-time Memory Report at c_bands before calling an iterative solver
           496 MiB given to the printing process from OS
             0 MiB allocation reported by mallinfo(arena+hblkhd)
        143165 MiB available memory on the node where the printing process lives
------------------
     ethr =  2.47E-03,  avg # of iterations =  5.0

     negative rho (up, down):  2.290E-03 0.000E+00

     total cpu time spent up to now is       50.0 secs

     total energy              =   -1491.64928864 Ry
     estimated scf accuracy    <      22.31113310 Ry

     iteration # 73     ecut=    30.00 Ry     beta= 0.70
     Davidson diagonalization with overlap

---- Real-time Memory Report at c_bands before calling an iterative solver
           496 MiB given to the printing process from OS
             0 MiB allocation reported by mallinfo(arena+hblkhd)
        143165 MiB available memory on the node where the printing process lives
------------------
     ethr =  2.47E-03,  avg # of iterations =  1.0

     negative rho (up, down):  2.335E-03 0.000E+00

     total cpu time spent up to now is       50.6 secs

     total energy              =   -1491.76292004 Ry
     estimated scf accuracy    <       5.79447865 Ry

     iteration # 74     ecut=    30.00 Ry     beta= 0.70
     Davidson diagonalization with overlap

---- Real-time Memory Report at c_bands before calling an iterative solver
           496 MiB given to the printing process from OS
             0 MiB allocation reported by mallinfo(arena+hblkhd)
        143165 MiB available memory on the node where the printing process lives
------------------
     ethr =  2.47E-03,  avg # of iterations =  3.0

     negative rho (up, down):  2.270E-03 0.000E+00

     total cpu time spent up to now is       51.2 secs

     total energy              =   -1491.69599654 Ry
     estimated scf accuracy    <       9.14286461 Ry

     iteration # 75     ecut=    30.00 Ry     beta= 0.70
     Davidson diagonalization with overlap

---- Real-time Memory Report at c_bands before calling an iterative solver
           496 MiB given to the printing process from OS
             0 MiB allocation reported by mallinfo(arena+hblkhd)
        143165 MiB available memory on the node where the printing process lives
------------------
     ethr =  2.47E-03,  avg # of iterations =  1.0

     negative rho (up, down):  2.305E-03 0.000E+00

     total cpu time spent up to now is       51.8 secs

     total energy              =   -1491.69929559 Ry
     estimated scf accuracy    <      11.71466028 Ry

     iteration # 76     ecut=    30.00 Ry     beta= 0.70
     Davidson diagonalization with overlap

---- Real-time Memory Report at c_bands before calling an iterative solver
           496 MiB given to the printing process from OS
             0 MiB allocation reported by mallinfo(arena+hblkhd)
        143165 MiB available memory on the node where the printing process lives
------------------
     ethr =  2.47E-03,  avg # of iterations =  1.0

     negative rho (up, down):  2.286E-03 0.000E+00

     total cpu time spent up to now is       52.4 secs

     total energy              =   -1491.75734764 Ry
     estimated scf accuracy    <       3.76055411 Ry

     iteration # 77     ecut=    30.00 Ry     beta= 0.70
     Davidson diagonalization with overlap

---- Real-time Memory Report at c_bands before calling an iterative solver
           496 MiB given to the printing process from OS
             0 MiB allocation reported by mallinfo(arena+hblkhd)
        143165 MiB available memory on the node where the printing process lives
------------------
     ethr =  2.47E-03,  avg # of iterations =  1.0

     negative rho (up, down):  2.299E-03 0.000E+00

     total cpu time spent up to now is       53.0 secs

     total energy              =   -1491.70425451 Ry
     estimated scf accuracy    <       2.63782395 Ry

     iteration # 78     ecut=    30.00 Ry     beta= 0.70
     Davidson diagonalization with overlap

---- Real-time Memory Report at c_bands before calling an iterative solver
           496 MiB given to the printing process from OS
             0 MiB allocation reported by mallinfo(arena+hblkhd)
        143165 MiB available memory on the node where the printing process lives
------------------
     ethr =  2.47E-03,  avg # of iterations =  2.0

     negative rho (up, down):  2.299E-03 0.000E+00

     total cpu time spent up to now is       53.6 secs

     total energy              =   -1491.67475129 Ry
     estimated scf accuracy    <      20.25932332 Ry

     iteration # 79     ecut=    30.00 Ry     beta= 0.70
     Davidson diagonalization with overlap

---- Real-time Memory Report at c_bands before calling an iterative solver
           496 MiB given to the printing process from OS
             0 MiB allocation reported by mallinfo(arena+hblkhd)
        143165 MiB available memory on the node where the printing process lives
------------------
     ethr =  2.47E-03,  avg # of iterations =  1.0

     negative rho (up, down):  2.231E-03 0.000E+00

     total cpu time spent up to now is       54.2 secs

     total energy              =   -1491.76007588 Ry
     estimated scf accuracy    <      13.97586392 Ry

     iteration # 80     ecut=    30.00 Ry     beta= 0.70
     Davidson diagonalization with overlap

---- Real-time Memory Report at c_bands before calling an iterative solver
           496 MiB given to the printing process from OS
             0 MiB allocation reported by mallinfo(arena+hblkhd)
        143166 MiB available memory on the node where the printing process lives
------------------
     ethr =  2.47E-03,  avg # of iterations =  1.0

     negative rho (up, down):  2.146E-03 0.000E+00

     total cpu time spent up to now is       54.8 secs

     total energy              =   -1491.75006389 Ry
     estimated scf accuracy    <       1.85341636 Ry

     iteration # 81     ecut=    30.00 Ry     beta= 0.70
     Davidson diagonalization with overlap

---- Real-time Memory Report at c_bands before calling an iterative solver
           496 MiB given to the printing process from OS
             0 MiB allocation reported by mallinfo(arena+hblkhd)
        143195 MiB available memory on the node where the printing process lives
------------------
     ethr =  2.38E-03,  avg # of iterations =  1.0

     negative rho (up, down):  2.200E-03 0.000E+00

     total cpu time spent up to now is       55.4 secs

     total energy              =   -1491.78528881 Ry
     estimated scf accuracy    <       1.44452671 Ry

     iteration # 82     ecut=    30.00 Ry     beta= 0.70
     Davidson diagonalization with overlap

---- Real-time Memory Report at c_bands before calling an iterative solver
           496 MiB given to the printing process from OS
             0 MiB allocation reported by mallinfo(arena+hblkhd)
        143195 MiB available memory on the node where the printing process lives
------------------
     ethr =  1.85E-03,  avg # of iterations =  1.0

     negative rho (up, down):  2.190E-03 0.000E+00

     total cpu time spent up to now is       56.1 secs

     total energy              =   -1491.77390087 Ry
     estimated scf accuracy    <       1.28158767 Ry

     iteration # 83     ecut=    30.00 Ry     beta= 0.70
     Davidson diagonalization with overlap

---- Real-time Memory Report at c_bands before calling an iterative solver
           496 MiB given to the printing process from OS
             0 MiB allocation reported by mallinfo(arena+hblkhd)
        143190 MiB available memory on the node where the printing process lives
------------------
     ethr =  1.64E-03,  avg # of iterations =  1.0

     negative rho (up, down):  2.220E-03 0.000E+00

     total cpu time spent up to now is       56.6 secs

     total energy              =   -1491.73037641 Ry
     estimated scf accuracy    <       1.67798649 Ry

     iteration # 84     ecut=    30.00 Ry     beta= 0.70
     Davidson diagonalization with overlap

---- Real-time Memory Report at c_bands before calling an iterative solver
           496 MiB given to the printing process from OS
             0 MiB allocation reported by mallinfo(arena+hblkhd)
        143191 MiB available memory on the node where the printing process lives
------------------
     ethr =  1.64E-03,  avg # of iterations =  1.0

     negative rho (up, down):  2.225E-03 0.000E+00

     total cpu time spent up to now is       57.2 secs

     total energy              =   -1491.72270564 Ry
     estimated scf accuracy    <       2.75681087 Ry

     iteration # 85     ecut=    30.00 Ry     beta= 0.70
     Davidson diagonalization with overlap

---- Real-time Memory Report at c_bands before calling an iterative solver
           496 MiB given to the printing process from OS
             0 MiB allocation reported by mallinfo(arena+hblkhd)
        143191 MiB available memory on the node where the printing process lives
------------------
     ethr =  1.64E-03,  avg # of iterations =  1.0

     negative rho (up, down):  2.272E-03 0.000E+00

     total cpu time spent up to now is       57.8 secs

     total energy              =   -1491.76110008 Ry
     estimated scf accuracy    <      12.88688431 Ry

     iteration # 86     ecut=    30.00 Ry     beta= 0.70
     Davidson diagonalization with overlap

---- Real-time Memory Report at c_bands before calling an iterative solver
           496 MiB given to the printing process from OS
             0 MiB allocation reported by mallinfo(arena+hblkhd)
        143191 MiB available memory on the node where the printing process lives
------------------
     ethr =  1.64E-03,  avg # of iterations =  1.0

     negative rho (up, down):  2.240E-03 0.000E+00

     total cpu time spent up to now is       58.4 secs

     total energy              =   -1491.69831894 Ry
     estimated scf accuracy    <       6.29364040 Ry

     iteration # 87     ecut=    30.00 Ry     beta= 0.70
     Davidson diagonalization with overlap

---- Real-time Memory Report at c_bands before calling an iterative solver
           496 MiB given to the printing process from OS
             0 MiB allocation reported by mallinfo(arena+hblkhd)
        143234 MiB available memory on the node where the printing process lives
------------------
     ethr =  1.64E-03,  avg # of iterations =  1.0

     negative rho (up, down):  2.296E-03 0.000E+00

     total cpu time spent up to now is       59.0 secs

     total energy              =   -1491.73502860 Ry
     estimated scf accuracy    <       6.85375383 Ry

     iteration # 88     ecut=    30.00 Ry     beta= 0.70
     Davidson diagonalization with overlap

---- Real-time Memory Report at c_bands before calling an iterative solver
           496 MiB given to the printing process from OS
             0 MiB allocation reported by mallinfo(arena+hblkhd)
        143221 MiB available memory on the node where the printing process lives
------------------
     ethr =  1.64E-03,  avg # of iterations =  2.0

     negative rho (up, down):  2.327E-03 0.000E+00

     total cpu time spent up to now is       59.6 secs

     total energy              =   -1491.58221813 Ry
     estimated scf accuracy    <      37.32408173 Ry

     iteration # 89     ecut=    30.00 Ry     beta= 0.70
     Davidson diagonalization with overlap

---- Real-time Memory Report at c_bands before calling an iterative solver
           496 MiB given to the printing process from OS
             0 MiB allocation reported by mallinfo(arena+hblkhd)
        143215 MiB available memory on the node where the printing process lives
------------------
     ethr =  1.64E-03,  avg # of iterations =  1.0

     negative rho (up, down):  2.229E-03 0.000E+00

     total cpu time spent up to now is       60.2 secs

     total energy              =   -1491.75005358 Ry
     estimated scf accuracy    <      15.24506590 Ry

     iteration # 90     ecut=    30.00 Ry     beta= 0.70
     Davidson diagonalization with overlap

---- Real-time Memory Report at c_bands before calling an iterative solver
           496 MiB given to the printing process from OS
             0 MiB allocation reported by mallinfo(arena+hblkhd)
        143215 MiB available memory on the node where the printing process lives
------------------
     ethr =  1.64E-03,  avg # of iterations =  1.0

     negative rho (up, down):  2.284E-03 0.000E+00

     total cpu time spent up to now is       60.8 secs

     total energy              =   -1491.76346447 Ry
     estimated scf accuracy    <       3.49477494 Ry

     iteration # 91     ecut=    30.00 Ry     beta= 0.70
     Davidson diagonalization with overlap

---- Real-time Memory Report at c_bands before calling an iterative solver
           496 MiB given to the printing process from OS
             0 MiB allocation reported by mallinfo(arena+hblkhd)
        143275 MiB available memory on the node where the printing process lives
------------------
     ethr =  1.64E-03,  avg # of iterations =  1.0

     negative rho (up, down):  2.278E-03 0.000E+00

     total cpu time spent up to now is       61.4 secs

     total energy              =   -1491.74447814 Ry
     estimated scf accuracy    <       4.53775906 Ry

     iteration # 92     ecut=    30.00 Ry     beta= 0.70
     Davidson diagonalization with overlap

---- Real-time Memory Report at c_bands before calling an iterative solver
           496 MiB given to the printing process from OS
             0 MiB allocation reported by mallinfo(arena+hblkhd)
        143249 MiB available memory on the node where the printing process lives
------------------
     ethr =  1.64E-03,  avg # of iterations =  1.0

     negative rho (up, down):  2.310E-03 0.000E+00

     total cpu time spent up to now is       62.0 secs

     total energy              =   -1491.76153614 Ry
     estimated scf accuracy    <       8.22732577 Ry

     iteration # 93     ecut=    30.00 Ry     beta= 0.70
     Davidson diagonalization with overlap

---- Real-time Memory Report at c_bands before calling an iterative solver
           496 MiB given to the printing process from OS
             0 MiB allocation reported by mallinfo(arena+hblkhd)
        143244 MiB available memory on the node where the printing process lives
------------------
     ethr =  1.64E-03,  avg # of iterations =  1.0

     negative rho (up, down):  2.358E-03 0.000E+00

     total cpu time spent up to now is       62.6 secs

     total energy              =   -1491.76039536 Ry
     estimated scf accuracy    <       8.45193053 Ry

     iteration # 94     ecut=    30.00 Ry     beta= 0.70
     Davidson diagonalization with overlap

---- Real-time Memory Report at c_bands before calling an iterative solver
           496 MiB given to the printing process from OS
             0 MiB allocation reported by mallinfo(arena+hblkhd)
        143278 MiB available memory on the node where the printing process lives
------------------
     ethr =  1.64E-03,  avg # of iterations =  3.0

     negative rho (up, down):  2.263E-03 0.000E+00

     total cpu time spent up to now is       63.2 secs

     total energy              =   -1491.68271417 Ry
     estimated scf accuracy    <      13.00494669 Ry

     iteration # 95     ecut=    30.00 Ry     beta= 0.70
     Davidson diagonalization with overlap

---- Real-time Memory Report at c_bands before calling an iterative solver
           496 MiB given to the printing process from OS
             0 MiB allocation reported by mallinfo(arena+hblkhd)
        143222 MiB available memory on the node where the printing process lives
------------------
     ethr =  1.64E-03,  avg # of iterations =  5.0

     negative rho (up, down):  2.476E-03 0.000E+00

     total cpu time spent up to now is       64.1 secs

     total energy              =   -1491.49628659 Ry
     estimated scf accuracy    <       6.42270622 Ry

     iteration # 96     ecut=    30.00 Ry     beta= 0.70
     Davidson diagonalization with overlap

---- Real-time Memory Report at c_bands before calling an iterative solver
           496 MiB given to the printing process from OS
             0 MiB allocation reported by mallinfo(arena+hblkhd)
        143223 MiB available memory on the node where the printing process lives
------------------
     ethr =  1.64E-03,  avg # of iterations =  5.0

     negative rho (up, down):  2.232E-03 0.000E+00

     total cpu time spent up to now is       64.7 secs

     total energy              =   -1491.87320933 Ry
     estimated scf accuracy    <      20.33832614 Ry

     iteration # 97     ecut=    30.00 Ry     beta= 0.70
     Davidson diagonalization with overlap

---- Real-time Memory Report at c_bands before calling an iterative solver
           496 MiB given to the printing process from OS
             0 MiB allocation reported by mallinfo(arena+hblkhd)
        143221 MiB available memory on the node where the printing process lives
------------------
     ethr =  1.64E-03,  avg # of iterations =  1.0

     negative rho (up, down):  2.268E-03 0.000E+00

     total cpu time spent up to now is       65.3 secs

     total energy              =   -1491.75466365 Ry
     estimated scf accuracy    <      19.89695280 Ry

     iteration # 98     ecut=    30.00 Ry     beta= 0.70
     Davidson diagonalization with overlap

---- Real-time Memory Report at c_bands before calling an iterative solver
           496 MiB given to the printing process from OS
             0 MiB allocation reported by mallinfo(arena+hblkhd)
        143220 MiB available memory on the node where the printing process lives
------------------
     ethr =  1.64E-03,  avg # of iterations =  1.0

     negative rho (up, down):  2.484E-03 0.000E+00

     total cpu time spent up to now is       65.9 secs

     total energy              =   -1491.52970008 Ry
     estimated scf accuracy    <       9.77738556 Ry

     iteration # 99     ecut=    30.00 Ry     beta= 0.70
     Davidson diagonalization with overlap

---- Real-time Memory Report at c_bands before calling an iterative solver
           496 MiB given to the printing process from OS
             0 MiB allocation reported by mallinfo(arena+hblkhd)
        143198 MiB available memory on the node where the printing process lives
------------------
     ethr =  1.64E-03,  avg # of iterations =  5.0

     negative rho (up, down):  2.208E-03 0.000E+00

     total cpu time spent up to now is       66.6 secs

     total energy              =   -1491.38004945 Ry
     estimated scf accuracy    <      66.29127261 Ry

     iteration #100     ecut=    30.00 Ry     beta= 0.70
     Davidson diagonalization with overlap

---- Real-time Memory Report at c_bands before calling an iterative solver
           496 MiB given to the printing process from OS
             0 MiB allocation reported by mallinfo(arena+hblkhd)
        143198 MiB available memory on the node where the printing process lives
------------------
     ethr =  1.64E-03,  avg # of iterations =  3.0

     negative rho (up, down):  2.203E-03 0.000E+00

     total cpu time spent up to now is       67.2 secs

     total energy              =   -1491.71328728 Ry
     estimated scf accuracy    <      18.57850075 Ry

     End of self-consistent calculation

     convergence NOT achieved after 100 iterations: stopping

     Writing config to output data dir new_calculations/myprefix.save/
     Message from routine punch:
     wavefunctions written to file
 
     init_run     :    123.35s CPU      4.41s WALL (       1 calls)
     electrons    :   1949.08s CPU     62.98s WALL (       1 calls)

     Called by init_run:
     wfcinit      :     34.17s CPU      1.10s WALL (       1 calls)
     wfcinit:atom :      0.01s CPU      0.00s WALL (       1 calls)
     wfcinit:wfcr :     34.08s CPU      1.10s WALL (       1 calls)
     potinit      :     34.43s CPU      1.12s WALL (       1 calls)
     hinit0       :     53.45s CPU      2.13s WALL (       1 calls)

     Called by electrons:
     c_bands      :    770.47s CPU     24.48s WALL (     100 calls)
     sum_band     :    244.89s CPU      7.80s WALL (     100 calls)
     v_of_rho     :     66.15s CPU      2.17s WALL (     101 calls)
     v_h          :      4.12s CPU      0.13s WALL (     101 calls)
     v_xc         :     61.78s CPU      2.03s WALL (     101 calls)
     newd         :     79.75s CPU      2.62s WALL (     101 calls)
     PAW_pot      :    763.17s CPU     24.93s WALL (     101 calls)
     mix_rho      :     11.62s CPU      0.38s WALL (     100 calls)

     Called by c_bands:
     init_us_2    :      1.56s CPU      0.05s WALL (     201 calls)
     init_us_2:cp :      1.28s CPU      0.04s WALL (     201 calls)
     regterg      :    762.36s CPU     24.21s WALL (     100 calls)

     Called by sum_band:
     sum_band:wei :      0.23s CPU      0.01s WALL (     100 calls)
     sum_band:loo :    165.19s CPU      5.23s WALL (     100 calls)
     sum_band:buf :      0.07s CPU      0.00s WALL (     100 calls)
     sum_band:ini :      0.92s CPU      0.03s WALL (     100 calls)
     sum_band:cal :      0.50s CPU      0.02s WALL (     100 calls)
     sum_band:bec :      0.21s CPU      0.01s WALL (     100 calls)
     addusdens    :     71.45s CPU      2.30s WALL (     100 calls)
     addusd:skk   :      0.30s CPU      0.01s WALL (     200 calls)
     addusd:dgemm :      5.74s CPU      0.23s WALL (     200 calls)
     addusd:qvan2 :     63.61s CPU      2.00s WALL (     200 calls)

     Called by *egterg:
     rdiaghg      :     22.14s CPU      0.72s WALL (     310 calls)
     regterg:over :      0.72s CPU      0.02s WALL (     210 calls)
     regterg:upda :      0.95s CPU      0.03s WALL (     210 calls)
     regterg:last :      1.30s CPU      0.04s WALL (     152 calls)
     h_psi        :    765.64s CPU     24.30s WALL (     311 calls)
     s_psi        :      0.45s CPU      0.02s WALL (     311 calls)
     g_psi        :      0.23s CPU      0.01s WALL (     210 calls)

     Called by h_psi:
     h_psi:calbec :      1.48s CPU      0.05s WALL (     311 calls)
     vloc_psi     :    761.88s CPU     24.18s WALL (     311 calls)
     add_vuspsi   :      0.72s CPU      0.02s WALL (     311 calls)

     General routines
     calbec       :      1.39s CPU      0.05s WALL (     411 calls)
     fft          :     51.19s CPU      1.65s WALL (    1111 calls)
     ffts         :     27.09s CPU      0.88s WALL (     201 calls)
     fftw         :    820.63s CPU     25.93s WALL (   13288 calls)
     interpolate  :     31.50s CPU      1.02s WALL (     101 calls)
     davcio       :      0.00s CPU      0.04s WALL (      19 calls)
 
     Parallel routines

     PAW routines
     PAW_pot      :    763.17s CPU     24.93s WALL (     101 calls)
     PAW_symme    :      0.59s CPU      0.02s WALL (     201 calls)
 
     PWSCF        :  34m32.67s CPU   1m 7.78s WALL

 
   This run was terminated on:   7:49:31  21May2023            

=------------------------------------------------------------------------------=
   JOB DONE.
=------------------------------------------------------------------------------=
