
     Program PWSCF v.7.0 starts on 20May2023 at 19:14:15 

     This program is part of the open-source Quantum ESPRESSO suite
     for quantum simulation of materials; please cite
         "P. Giannozzi et al., J. Phys.:Condens. Matter 21 395502 (2009);
         "P. Giannozzi et al., J. Phys.:Condens. Matter 29 465901 (2017);
         "P. Giannozzi et al., J. Chem. Phys. 152 154105 (2020);
          URL http://www.quantum-espresso.org", 
     in publications or presentations arising from this work. More details at
     http://www.quantum-espresso.org/quote

     Parallel version (MPI & OpenMP), running on      32 processor cores
     Number of MPI processes:                 1
     Threads/MPI process:                    32

     MPI processes distributed on     1 nodes
     77301 MiB available memory on the printing compute node when the environment starts
 
     Reading input from espresso_14672.pwi
Warning: card &CELL ignored
Warning: card / ignored

     Current dimensions of program PWSCF are:
     Max number of different atomic species (ntypx) = 10
     Max number of k-points (npk) =  40000
     Max angular momentum in pseudopotentials (lmaxx) =  4
     file Ga.pbe-dn-kjpaw_psl.1.0.0.UPF: wavefunction(s)  4S renormalized

     gamma-point specific algorithms are used
     Message from routine setup:
     using ibrav=0 with symmetry is DISCOURAGED, use correct ibrav instead

     Subspace diagonalization in iterative solution of the eigenvalue problem:
     a serial algorithm will be used

 
     G-vector sticks info
     --------------------
     sticks:   dense  smooth     PW     G-vecs:    dense   smooth      PW
     Sum        2185    1097    273                40171    14135    1749
 
     Using Slab Decomposition
 


     bravais-lattice index     =            0
     lattice parameter (alat)  =      11.6340  a.u.
     unit-cell volume          =     637.5999 (a.u.)^3
     number of atoms/cell      =            5
     number of atomic types    =            3
     number of electrons       =        82.00
     number of Kohn-Sham states=           49
     kinetic-energy cutoff     =      30.0000  Ry
     charge density cutoff     =     240.0000  Ry
     scf convergence threshold =      1.0E-06
     mixing beta               =       0.7000
     number of iterations used =            8  plain     mixing
     Exchange-correlation= SLA  PW   PBX  PBC
                           (   1   4   3   4   0   0   0)

     celldm(1)=  11.634014  celldm(2)=   0.000000  celldm(3)=   0.000000
     celldm(4)=   0.000000  celldm(5)=   0.000000  celldm(6)=   0.000000

     crystal axes: (cart. coord. in units of alat)
               a(1) = (   1.000000   0.000000   0.000000 )  
               a(2) = (   0.538307   0.842749   0.000000 )  
               a(3) = (  -0.769154  -0.421374   0.480465 )  

     reciprocal axes: (cart. coord. in units 2 pi/alat)
               b(1) = (  1.000000 -0.638752  1.040659 )  
               b(2) = (  0.000000  1.186594  1.040659 )  
               b(3) = (  0.000000  0.000000  2.081319 )  


     PseudoPot. # 1 for Sm read from file:
     /home/pragov/projects/rrg-bengioy-ad/pragov/crystal_structure_design/SSSP/Sm.GGA-PBE-paw-v1.0.UPF
     MD5 check sum: 886f70968969f895acf876f5617e0641
     Pseudo is Projector augmented-wave + core cor, Zval = 16.0
     Generated using ATOMPAW code
     Shape of augmentation charge: BESSEL
     Using radial grid of 1107 points,  8 beta functions with: 
                l(1) =   0
                l(2) =   0
                l(3) =   1
                l(4) =   1
                l(5) =   2
                l(6) =   2
                l(7) =   3
                l(8) =   3
     Q(r) pseudized with 0 coefficients 


     PseudoPot. # 2 for Zn read from file:
     /home/pragov/projects/rrg-bengioy-ad/pragov/crystal_structure_design/SSSP/Zn_pbe_v1.uspp.F.UPF
     MD5 check sum: df62231357ef9e81f77b2b3087fa5675
     Pseudo is Ultrasoft, Zval = 20.0
     Generated by new atomic code, or converted to UPF format
     Using radial grid of  943 points,  6 beta functions with: 
                l(1) =   0
                l(2) =   0
                l(3) =   1
                l(4) =   1
                l(5) =   2
                l(6) =   2
     Q(r) pseudized with  8 coefficients,  rinner =    1.100   1.100   1.100
                                                       1.100   1.100

     PseudoPot. # 3 for Ga read from file:
     /home/pragov/projects/rrg-bengioy-ad/pragov/crystal_structure_design/SSSP/Ga.pbe-dn-kjpaw_psl.1.0.0.UPF
     MD5 check sum: a27b4342b1af7e5f338de752e9ed7044
     Pseudo is Projector augmented-wave + core cor, Zval = 13.0
     Generated using "atomic" code by A. Dal Corso  v.5.1
     Shape of augmentation charge: PSQ
     Using radial grid of 1205 points,  6 beta functions with: 
                l(1) =   0
                l(2) =   0
                l(3) =   1
                l(4) =   1
                l(5) =   2
                l(6) =   2
     Q(r) pseudized with 0 coefficients 


     atomic species   valence    mass     pseudopotential
        Sm            16.00   150.36000     Sm( 1.00)
        Zn            20.00    65.38000     Zn( 1.00)
        Ga            13.00    69.72300     Ga( 1.00)

      4 Sym. Ops., with inversion, found


                                    s                        frac. trans.

      isym =  1     identity                                     

 cryst.   s( 1) = (     1          0          0      )
                  (     0          1          0      )
                  (     0          0          1      )

 cart.    s( 1) = (  1.0000000  0.0000000  0.0000000 )
                  (  0.0000000  1.0000000  0.0000000 )
                  (  0.0000000  0.0000000  1.0000000 )


      isym =  2     180 deg rotation - cart. axis [0,0,1]        

 cryst.   s( 2) = (    -1          0          0      )
                  (     0         -1          0      )
                  (     1          1          1      )

 cart.    s( 2) = ( -1.0000000 -0.0000000 -0.0000000 )
                  (  0.0000000 -1.0000000 -0.0000000 )
                  (  0.0000000  0.0000000  1.0000000 )


      isym =  3     inversion                                    

 cryst.   s( 3) = (    -1          0          0      )
                  (     0         -1          0      )
                  (     0          0         -1      )

 cart.    s( 3) = ( -1.0000000 -0.0000000 -0.0000000 )
                  (  0.0000000 -1.0000000 -0.0000000 )
                  (  0.0000000  0.0000000 -1.0000000 )


      isym =  4     inv. 180 deg rotation - cart. axis [0,0,1]   

 cryst.   s( 4) = (     1          0          0      )
                  (     0          1          0      )
                  (    -1         -1         -1      )

 cart.    s( 4) = (  1.0000000  0.0000000  0.0000000 )
                  (  0.0000000  1.0000000  0.0000000 )
                  (  0.0000000  0.0000000 -1.0000000 )


   Cartesian axes

     site n.     atom                  positions (alat units)
         1           Sm  tau(   1) = (   0.0000000   0.0000000   0.0000000  )
         2           Zn  tau(   2) = (   0.5000000  -0.0000000   0.2402323  )
         3           Zn  tau(   3) = (   0.2691537   0.4213743   0.2402323  )
         4           Ga  tau(   4) = (   0.9443039   0.5173288   0.0000000  )
         5           Ga  tau(   5) = (   0.5940036   0.3254198   0.0000000  )

   Crystallographic axes

     site n.     atom                  positions (cryst. coord.)
         1           Sm  tau(   1) = (  0.0000000  0.0000000  0.0000000  )
         2           Zn  tau(   2) = (  0.7500000  0.2500000  0.5000000  )
         3           Zn  tau(   3) = (  0.2500000  0.7500000  0.5000000  )
         4           Ga  tau(   4) = (  0.6138590  0.6138590  0.0000000  )
         5           Ga  tau(   5) = (  0.3861410  0.3861410  0.0000000  )

     number of k points=     1  Methfessel-Paxton smearing, width (Ry)=  0.0010
                       cart. coord. in units 2pi/alat
        k(    1) = (   0.0000000   0.0000000   0.0000000), wk =   2.0000000

                       cryst. coord.
        k(    1) = (   0.0000000   0.0000000   0.0000000), wk =   2.0000000

     Dense  grid:    20086 G-vectors     FFT dimensions: (  60,  60,  60)

     Smooth grid:     7068 G-vectors     FFT dimensions: (  45,  45,  45)

     Dynamical RAM for                 wfc:       0.66 MB

     Dynamical RAM for     wfc (w. buffer):       0.66 MB

     Dynamical RAM for           str. fact:       0.92 MB

     Dynamical RAM for           local pot:       0.00 MB

     Dynamical RAM for          nlocal pot:       1.40 MB

     Dynamical RAM for                qrad:       8.96 MB

     Dynamical RAM for          rho,v,vnew:       5.86 MB

     Dynamical RAM for               rhoin:       1.95 MB

     Dynamical RAM for            rho*nmix:       4.90 MB

     Dynamical RAM for           G-vectors:       1.20 MB

     Dynamical RAM for          h,s,v(r/c):       0.22 MB

     Dynamical RAM for          <psi|beta>:       0.04 MB

     Dynamical RAM for                 psi:       1.32 MB

     Dynamical RAM for                hpsi:       1.32 MB

     Dynamical RAM for                spsi:       1.32 MB

     Dynamical RAM for      wfcinit/wfcrot:       2.19 MB

     Dynamical RAM for           addusdens:     170.71 MB

     Dynamical RAM for          addusforce:     171.50 MB

     Dynamical RAM for         addusstress:     178.38 MB

     Estimated static dynamical RAM per process >      30.43 MB

     Estimated max dynamical RAM per process >     213.71 MB

     Check: negative core charge=   -0.000002

     Initial potential from superposition of free atoms

     starting charge      81.9882, renormalised to      82.0000
     Starting wfcs are   76 randomized atomic wfcs
     Checking if some PAW data can be deallocated... 

     total cpu time spent up to now is        7.1 secs

     Self-consistent Calculation

     iteration #  1     ecut=    30.00 Ry     beta= 0.70
     Davidson diagonalization with overlap

---- Real-time Memory Report at c_bands before calling an iterative solver
           535 MiB given to the printing process from OS
             0 MiB allocation reported by mallinfo(arena+hblkhd)
         76939 MiB available memory on the node where the printing process lives
------------------
     ethr =  1.00E-02,  avg # of iterations =  2.0

     total cpu time spent up to now is        8.1 secs

     total energy              =   -2053.44089560 Ry
     estimated scf accuracy    <      25.94938375 Ry

     iteration #  2     ecut=    30.00 Ry     beta= 0.70
     Davidson diagonalization with overlap

---- Real-time Memory Report at c_bands before calling an iterative solver
           800 MiB given to the printing process from OS
             0 MiB allocation reported by mallinfo(arena+hblkhd)
         76790 MiB available memory on the node where the printing process lives
------------------
     ethr =  1.00E-02,  avg # of iterations =  6.0

     total cpu time spent up to now is        9.3 secs

     total energy              =   -2083.98629493 Ry
     estimated scf accuracy    <     183.80760365 Ry

     iteration #  3     ecut=    30.00 Ry     beta= 0.70
     Davidson diagonalization with overlap

---- Real-time Memory Report at c_bands before calling an iterative solver
           806 MiB given to the printing process from OS
             0 MiB allocation reported by mallinfo(arena+hblkhd)
         76779 MiB available memory on the node where the printing process lives
------------------
     ethr =  1.00E-02,  avg # of iterations =  6.0

     total cpu time spent up to now is       10.5 secs

     total energy              =   -2090.68598229 Ry
     estimated scf accuracy    <      37.65448882 Ry

     iteration #  4     ecut=    30.00 Ry     beta= 0.70
     Davidson diagonalization with overlap

---- Real-time Memory Report at c_bands before calling an iterative solver
           808 MiB given to the printing process from OS
             0 MiB allocation reported by mallinfo(arena+hblkhd)
         76777 MiB available memory on the node where the printing process lives
------------------
     ethr =  1.00E-02,  avg # of iterations =  2.0

     total cpu time spent up to now is       11.5 secs

     total energy              =   -2084.51895037 Ry
     estimated scf accuracy    <      28.95128174 Ry

     iteration #  5     ecut=    30.00 Ry     beta= 0.70
     Davidson diagonalization with overlap

---- Real-time Memory Report at c_bands before calling an iterative solver
           808 MiB given to the printing process from OS
             0 MiB allocation reported by mallinfo(arena+hblkhd)
         76777 MiB available memory on the node where the printing process lives
------------------
     ethr =  1.00E-02,  avg # of iterations =  2.0

     total cpu time spent up to now is       12.6 secs

     total energy              =   -2082.19352143 Ry
     estimated scf accuracy    <      19.83078752 Ry

     iteration #  6     ecut=    30.00 Ry     beta= 0.70
     Davidson diagonalization with overlap

---- Real-time Memory Report at c_bands before calling an iterative solver
           808 MiB given to the printing process from OS
             0 MiB allocation reported by mallinfo(arena+hblkhd)
         76775 MiB available memory on the node where the printing process lives
------------------
     ethr =  1.00E-02,  avg # of iterations =  4.0

     total cpu time spent up to now is       13.6 secs

     total energy              =   -2083.96603284 Ry
     estimated scf accuracy    <       5.15408983 Ry

     iteration #  7     ecut=    30.00 Ry     beta= 0.70
     Davidson diagonalization with overlap

---- Real-time Memory Report at c_bands before calling an iterative solver
           808 MiB given to the printing process from OS
             0 MiB allocation reported by mallinfo(arena+hblkhd)
         76771 MiB available memory on the node where the printing process lives
------------------
     ethr =  6.29E-03,  avg # of iterations =  2.0

     total cpu time spent up to now is       14.6 secs

     total energy              =   -2085.36779581 Ry
     estimated scf accuracy    <      19.91951132 Ry

     iteration #  8     ecut=    30.00 Ry     beta= 0.70
     Davidson diagonalization with overlap

---- Real-time Memory Report at c_bands before calling an iterative solver
           808 MiB given to the printing process from OS
             0 MiB allocation reported by mallinfo(arena+hblkhd)
         76774 MiB available memory on the node where the printing process lives
------------------
     ethr =  6.29E-03,  avg # of iterations =  1.0

     total cpu time spent up to now is       15.6 secs

     total energy              =   -2078.53496314 Ry
     estimated scf accuracy    <      20.62089549 Ry

     iteration #  9     ecut=    30.00 Ry     beta= 0.70
     Davidson diagonalization with overlap

---- Real-time Memory Report at c_bands before calling an iterative solver
           808 MiB given to the printing process from OS
             0 MiB allocation reported by mallinfo(arena+hblkhd)
         76773 MiB available memory on the node where the printing process lives
------------------
     ethr =  6.29E-03,  avg # of iterations =  3.0

     total cpu time spent up to now is       18.1 secs

     total energy              =   -2085.21415436 Ry
     estimated scf accuracy    <      53.13292749 Ry

     iteration # 10     ecut=    30.00 Ry     beta= 0.70
     Davidson diagonalization with overlap

---- Real-time Memory Report at c_bands before calling an iterative solver
           808 MiB given to the printing process from OS
             0 MiB allocation reported by mallinfo(arena+hblkhd)
         76773 MiB available memory on the node where the printing process lives
------------------
     ethr =  6.29E-03,  avg # of iterations =  1.0

     total cpu time spent up to now is       19.1 secs

     total energy              =   -2085.52235909 Ry
     estimated scf accuracy    <      48.86619525 Ry

     iteration # 11     ecut=    30.00 Ry     beta= 0.70
     Davidson diagonalization with overlap

---- Real-time Memory Report at c_bands before calling an iterative solver
           808 MiB given to the printing process from OS
             0 MiB allocation reported by mallinfo(arena+hblkhd)
         76775 MiB available memory on the node where the printing process lives
------------------
     ethr =  6.29E-03,  avg # of iterations =  1.0

     total cpu time spent up to now is       20.0 secs

     total energy              =   -2082.69686989 Ry
     estimated scf accuracy    <      50.52221807 Ry

     iteration # 12     ecut=    30.00 Ry     beta= 0.70
     Davidson diagonalization with overlap

---- Real-time Memory Report at c_bands before calling an iterative solver
           808 MiB given to the printing process from OS
             0 MiB allocation reported by mallinfo(arena+hblkhd)
         76776 MiB available memory on the node where the printing process lives
------------------
     ethr =  6.29E-03,  avg # of iterations =  1.0

     total cpu time spent up to now is       21.0 secs

     total energy              =   -2082.42830117 Ry
     estimated scf accuracy    <      26.47987989 Ry

     iteration # 13     ecut=    30.00 Ry     beta= 0.70
     Davidson diagonalization with overlap

---- Real-time Memory Report at c_bands before calling an iterative solver
           808 MiB given to the printing process from OS
             0 MiB allocation reported by mallinfo(arena+hblkhd)
         76776 MiB available memory on the node where the printing process lives
------------------
     ethr =  6.29E-03,  avg # of iterations =  1.0

     total cpu time spent up to now is       22.0 secs

     total energy              =   -2081.85214316 Ry
     estimated scf accuracy    <       3.78726926 Ry

     iteration # 14     ecut=    30.00 Ry     beta= 0.70
     Davidson diagonalization with overlap

---- Real-time Memory Report at c_bands before calling an iterative solver
           808 MiB given to the printing process from OS
             0 MiB allocation reported by mallinfo(arena+hblkhd)
         76776 MiB available memory on the node where the printing process lives
------------------
     ethr =  4.62E-03,  avg # of iterations =  1.0

     total cpu time spent up to now is       23.0 secs

     total energy              =   -2082.31790979 Ry
     estimated scf accuracy    <       7.27599985 Ry

     iteration # 15     ecut=    30.00 Ry     beta= 0.70
     Davidson diagonalization with overlap

---- Real-time Memory Report at c_bands before calling an iterative solver
           808 MiB given to the printing process from OS
             0 MiB allocation reported by mallinfo(arena+hblkhd)
         76777 MiB available memory on the node where the printing process lives
------------------
     ethr =  4.62E-03,  avg # of iterations =  1.0

     total cpu time spent up to now is       23.9 secs

     total energy              =   -2082.45890743 Ry
     estimated scf accuracy    <       3.56781998 Ry

     iteration # 16     ecut=    30.00 Ry     beta= 0.70
     Davidson diagonalization with overlap

---- Real-time Memory Report at c_bands before calling an iterative solver
           808 MiB given to the printing process from OS
             0 MiB allocation reported by mallinfo(arena+hblkhd)
         76775 MiB available memory on the node where the printing process lives
------------------
     ethr =  4.35E-03,  avg # of iterations =  1.0

     total cpu time spent up to now is       24.9 secs

     total energy              =   -2082.03736188 Ry
     estimated scf accuracy    <       6.84479099 Ry

     iteration # 17     ecut=    30.00 Ry     beta= 0.70
     Davidson diagonalization with overlap

---- Real-time Memory Report at c_bands before calling an iterative solver
           808 MiB given to the printing process from OS
             0 MiB allocation reported by mallinfo(arena+hblkhd)
         76776 MiB available memory on the node where the printing process lives
------------------
     ethr =  4.35E-03,  avg # of iterations =  1.0

     total cpu time spent up to now is       25.9 secs

     total energy              =   -2082.29492461 Ry
     estimated scf accuracy    <       1.65086509 Ry

     iteration # 18     ecut=    30.00 Ry     beta= 0.70
     Davidson diagonalization with overlap

---- Real-time Memory Report at c_bands before calling an iterative solver
           808 MiB given to the printing process from OS
             0 MiB allocation reported by mallinfo(arena+hblkhd)
         76776 MiB available memory on the node where the printing process lives
------------------
     ethr =  2.01E-03,  avg # of iterations =  1.0

     total cpu time spent up to now is       26.8 secs

     total energy              =   -2082.31915551 Ry
     estimated scf accuracy    <       1.84998281 Ry

     iteration # 19     ecut=    30.00 Ry     beta= 0.70
     Davidson diagonalization with overlap

---- Real-time Memory Report at c_bands before calling an iterative solver
           810 MiB given to the printing process from OS
             0 MiB allocation reported by mallinfo(arena+hblkhd)
         76776 MiB available memory on the node where the printing process lives
------------------
     ethr =  2.01E-03,  avg # of iterations =  1.0

     total cpu time spent up to now is       27.8 secs

     total energy              =   -2082.29363564 Ry
     estimated scf accuracy    <       1.84602724 Ry

     iteration # 20     ecut=    30.00 Ry     beta= 0.70
     Davidson diagonalization with overlap

---- Real-time Memory Report at c_bands before calling an iterative solver
           810 MiB given to the printing process from OS
             0 MiB allocation reported by mallinfo(arena+hblkhd)
         76777 MiB available memory on the node where the printing process lives
------------------
     ethr =  2.01E-03,  avg # of iterations =  1.0

     total cpu time spent up to now is       28.8 secs

     total energy              =   -2082.27883538 Ry
     estimated scf accuracy    <       1.42604732 Ry

     iteration # 21     ecut=    30.00 Ry     beta= 0.70
     Davidson diagonalization with overlap

---- Real-time Memory Report at c_bands before calling an iterative solver
           810 MiB given to the printing process from OS
             0 MiB allocation reported by mallinfo(arena+hblkhd)
         76777 MiB available memory on the node where the printing process lives
------------------
     ethr =  1.74E-03,  avg # of iterations =  1.0

     total cpu time spent up to now is       29.8 secs

     total energy              =   -2082.16208219 Ry
     estimated scf accuracy    <       0.40230340 Ry

     iteration # 22     ecut=    30.00 Ry     beta= 0.70
     Davidson diagonalization with overlap

---- Real-time Memory Report at c_bands before calling an iterative solver
           810 MiB given to the printing process from OS
             0 MiB allocation reported by mallinfo(arena+hblkhd)
         76777 MiB available memory on the node where the printing process lives
------------------
     ethr =  4.91E-04,  avg # of iterations =  2.0

     total cpu time spent up to now is       30.8 secs

     total energy              =   -2082.26368332 Ry
     estimated scf accuracy    <       3.53154587 Ry

     iteration # 23     ecut=    30.00 Ry     beta= 0.70
     Davidson diagonalization with overlap

---- Real-time Memory Report at c_bands before calling an iterative solver
           810 MiB given to the printing process from OS
             0 MiB allocation reported by mallinfo(arena+hblkhd)
         76777 MiB available memory on the node where the printing process lives
------------------
     ethr =  4.91E-04,  avg # of iterations =  1.0

     total cpu time spent up to now is       31.7 secs

     total energy              =   -2082.28563192 Ry
     estimated scf accuracy    <       3.03933486 Ry

     iteration # 24     ecut=    30.00 Ry     beta= 0.70
     Davidson diagonalization with overlap

---- Real-time Memory Report at c_bands before calling an iterative solver
           810 MiB given to the printing process from OS
             0 MiB allocation reported by mallinfo(arena+hblkhd)
         76778 MiB available memory on the node where the printing process lives
------------------
     ethr =  4.91E-04,  avg # of iterations =  1.0

     total cpu time spent up to now is       32.7 secs

     total energy              =   -2082.26095594 Ry
     estimated scf accuracy    <       2.40436935 Ry

     iteration # 25     ecut=    30.00 Ry     beta= 0.70
     Davidson diagonalization with overlap

---- Real-time Memory Report at c_bands before calling an iterative solver
           810 MiB given to the printing process from OS
             0 MiB allocation reported by mallinfo(arena+hblkhd)
         76777 MiB available memory on the node where the printing process lives
------------------
     ethr =  4.91E-04,  avg # of iterations =  1.0

     total cpu time spent up to now is       33.7 secs

     total energy              =   -2082.14811276 Ry
     estimated scf accuracy    <       1.97340733 Ry

     iteration # 26     ecut=    30.00 Ry     beta= 0.70
     Davidson diagonalization with overlap

---- Real-time Memory Report at c_bands before calling an iterative solver
           810 MiB given to the printing process from OS
             0 MiB allocation reported by mallinfo(arena+hblkhd)
         76778 MiB available memory on the node where the printing process lives
------------------
     ethr =  4.91E-04,  avg # of iterations =  2.0

     total cpu time spent up to now is       34.7 secs

     total energy              =   -2082.19823601 Ry
     estimated scf accuracy    <       2.54999058 Ry

     iteration # 27     ecut=    30.00 Ry     beta= 0.70
     Davidson diagonalization with overlap

---- Real-time Memory Report at c_bands before calling an iterative solver
           810 MiB given to the printing process from OS
             0 MiB allocation reported by mallinfo(arena+hblkhd)
         76778 MiB available memory on the node where the printing process lives
------------------
     ethr =  4.91E-04,  avg # of iterations =  2.0

     total cpu time spent up to now is       35.7 secs

     total energy              =   -2082.23770409 Ry
     estimated scf accuracy    <       0.37337802 Ry

     iteration # 28     ecut=    30.00 Ry     beta= 0.70
     Davidson diagonalization with overlap

---- Real-time Memory Report at c_bands before calling an iterative solver
           810 MiB given to the printing process from OS
             0 MiB allocation reported by mallinfo(arena+hblkhd)
         76778 MiB available memory on the node where the printing process lives
------------------
     ethr =  4.55E-04,  avg # of iterations =  1.0

     total cpu time spent up to now is       36.6 secs

     total energy              =   -2082.23252426 Ry
     estimated scf accuracy    <       0.23288652 Ry

     iteration # 29     ecut=    30.00 Ry     beta= 0.70
     Davidson diagonalization with overlap

---- Real-time Memory Report at c_bands before calling an iterative solver
           810 MiB given to the printing process from OS
             0 MiB allocation reported by mallinfo(arena+hblkhd)
         76778 MiB available memory on the node where the printing process lives
------------------
     ethr =  2.84E-04,  avg # of iterations =  1.0

     total cpu time spent up to now is       37.6 secs

     total energy              =   -2082.21462612 Ry
     estimated scf accuracy    <       0.22728304 Ry

     iteration # 30     ecut=    30.00 Ry     beta= 0.70
     Davidson diagonalization with overlap

---- Real-time Memory Report at c_bands before calling an iterative solver
           810 MiB given to the printing process from OS
             0 MiB allocation reported by mallinfo(arena+hblkhd)
         76778 MiB available memory on the node where the printing process lives
------------------
     ethr =  2.77E-04,  avg # of iterations =  1.0

     total cpu time spent up to now is       38.6 secs

     total energy              =   -2082.24822704 Ry
     estimated scf accuracy    <       0.28925019 Ry

     iteration # 31     ecut=    30.00 Ry     beta= 0.70
     Davidson diagonalization with overlap

---- Real-time Memory Report at c_bands before calling an iterative solver
           810 MiB given to the printing process from OS
             0 MiB allocation reported by mallinfo(arena+hblkhd)
         76778 MiB available memory on the node where the printing process lives
------------------
     ethr =  2.77E-04,  avg # of iterations =  1.0

     total cpu time spent up to now is       40.3 secs

     total energy              =   -2082.24723016 Ry
     estimated scf accuracy    <       0.25820712 Ry

     iteration # 32     ecut=    30.00 Ry     beta= 0.70
     Davidson diagonalization with overlap

---- Real-time Memory Report at c_bands before calling an iterative solver
           810 MiB given to the printing process from OS
             0 MiB allocation reported by mallinfo(arena+hblkhd)
         76779 MiB available memory on the node where the printing process lives
------------------
     ethr =  2.77E-04,  avg # of iterations =  1.0

     total cpu time spent up to now is       41.3 secs

     total energy              =   -2082.24809034 Ry
     estimated scf accuracy    <       0.23469344 Ry

     iteration # 33     ecut=    30.00 Ry     beta= 0.70
     Davidson diagonalization with overlap

---- Real-time Memory Report at c_bands before calling an iterative solver
           810 MiB given to the printing process from OS
             0 MiB allocation reported by mallinfo(arena+hblkhd)
         76779 MiB available memory on the node where the printing process lives
------------------
     ethr =  2.77E-04,  avg # of iterations =  1.0

     total cpu time spent up to now is       42.2 secs

     total energy              =   -2082.23819370 Ry
     estimated scf accuracy    <       0.28859849 Ry

     iteration # 34     ecut=    30.00 Ry     beta= 0.70
     Davidson diagonalization with overlap

---- Real-time Memory Report at c_bands before calling an iterative solver
           810 MiB given to the printing process from OS
             0 MiB allocation reported by mallinfo(arena+hblkhd)
         76779 MiB available memory on the node where the printing process lives
------------------
     ethr =  2.77E-04,  avg # of iterations =  1.0

     total cpu time spent up to now is       43.2 secs

     total energy              =   -2082.24504053 Ry
     estimated scf accuracy    <       1.01045802 Ry

     iteration # 35     ecut=    30.00 Ry     beta= 0.70
     Davidson diagonalization with overlap

---- Real-time Memory Report at c_bands before calling an iterative solver
           810 MiB given to the printing process from OS
             0 MiB allocation reported by mallinfo(arena+hblkhd)
         76779 MiB available memory on the node where the printing process lives
------------------
     ethr =  2.77E-04,  avg # of iterations =  1.0

     total cpu time spent up to now is       44.2 secs

     total energy              =   -2082.25402959 Ry
     estimated scf accuracy    <       0.98681717 Ry

     iteration # 36     ecut=    30.00 Ry     beta= 0.70
     Davidson diagonalization with overlap

---- Real-time Memory Report at c_bands before calling an iterative solver
           810 MiB given to the printing process from OS
             0 MiB allocation reported by mallinfo(arena+hblkhd)
         76777 MiB available memory on the node where the printing process lives
------------------
     ethr =  2.77E-04,  avg # of iterations =  1.0

     total cpu time spent up to now is       45.2 secs

     total energy              =   -2082.25078633 Ry
     estimated scf accuracy    <       1.04504261 Ry

     iteration # 37     ecut=    30.00 Ry     beta= 0.70
     Davidson diagonalization with overlap

---- Real-time Memory Report at c_bands before calling an iterative solver
           810 MiB given to the printing process from OS
             0 MiB allocation reported by mallinfo(arena+hblkhd)
         76777 MiB available memory on the node where the printing process lives
------------------
     ethr =  2.77E-04,  avg # of iterations =  1.0

     total cpu time spent up to now is       46.1 secs

     total energy              =   -2082.24753139 Ry
     estimated scf accuracy    <       0.94942846 Ry

     iteration # 38     ecut=    30.00 Ry     beta= 0.70
     Davidson diagonalization with overlap

---- Real-time Memory Report at c_bands before calling an iterative solver
           810 MiB given to the printing process from OS
             0 MiB allocation reported by mallinfo(arena+hblkhd)
         76777 MiB available memory on the node where the printing process lives
------------------
     ethr =  2.77E-04,  avg # of iterations =  1.0

     total cpu time spent up to now is       47.1 secs

     total energy              =   -2082.24077395 Ry
     estimated scf accuracy    <       0.99682092 Ry

     iteration # 39     ecut=    30.00 Ry     beta= 0.70
     Davidson diagonalization with overlap

---- Real-time Memory Report at c_bands before calling an iterative solver
           810 MiB given to the printing process from OS
             0 MiB allocation reported by mallinfo(arena+hblkhd)
         76777 MiB available memory on the node where the printing process lives
------------------
     ethr =  2.77E-04,  avg # of iterations =  1.0

     total cpu time spent up to now is       48.1 secs

     total energy              =   -2082.23925337 Ry
     estimated scf accuracy    <       0.94558573 Ry

     iteration # 40     ecut=    30.00 Ry     beta= 0.70
     Davidson diagonalization with overlap

---- Real-time Memory Report at c_bands before calling an iterative solver
           810 MiB given to the printing process from OS
             0 MiB allocation reported by mallinfo(arena+hblkhd)
         76777 MiB available memory on the node where the printing process lives
------------------
     ethr =  2.77E-04,  avg # of iterations =  2.0

     total cpu time spent up to now is       49.1 secs

     total energy              =   -2082.24020412 Ry
     estimated scf accuracy    <       0.07678554 Ry

     iteration # 41     ecut=    30.00 Ry     beta= 0.70
     Davidson diagonalization with overlap

---- Real-time Memory Report at c_bands before calling an iterative solver
           810 MiB given to the printing process from OS
             0 MiB allocation reported by mallinfo(arena+hblkhd)
         76777 MiB available memory on the node where the printing process lives
------------------
     ethr =  9.36E-05,  avg # of iterations = 10.0

     total cpu time spent up to now is       50.1 secs

     total energy              =   -2082.23798023 Ry
     estimated scf accuracy    <       0.73968589 Ry

     iteration # 42     ecut=    30.00 Ry     beta= 0.70
     Davidson diagonalization with overlap

---- Real-time Memory Report at c_bands before calling an iterative solver
           810 MiB given to the printing process from OS
             0 MiB allocation reported by mallinfo(arena+hblkhd)
         76777 MiB available memory on the node where the printing process lives
------------------
     ethr =  9.36E-05,  avg # of iterations =  1.0

     total cpu time spent up to now is       51.1 secs

     total energy              =   -2082.23902269 Ry
     estimated scf accuracy    <       0.02559830 Ry

     iteration # 43     ecut=    30.00 Ry     beta= 0.70
     Davidson diagonalization with overlap

---- Real-time Memory Report at c_bands before calling an iterative solver
           810 MiB given to the printing process from OS
             0 MiB allocation reported by mallinfo(arena+hblkhd)
         76777 MiB available memory on the node where the printing process lives
------------------
     ethr =  3.12E-05,  avg # of iterations =  1.0

     total cpu time spent up to now is       52.0 secs

     total energy              =   -2082.24036036 Ry
     estimated scf accuracy    <       0.15943919 Ry

     iteration # 44     ecut=    30.00 Ry     beta= 0.70
     Davidson diagonalization with overlap

---- Real-time Memory Report at c_bands before calling an iterative solver
           810 MiB given to the printing process from OS
             0 MiB allocation reported by mallinfo(arena+hblkhd)
         76776 MiB available memory on the node where the printing process lives
------------------
     ethr =  3.12E-05,  avg # of iterations =  1.0

     total cpu time spent up to now is       53.0 secs

     total energy              =   -2082.23969165 Ry
     estimated scf accuracy    <       0.17952506 Ry

     iteration # 45     ecut=    30.00 Ry     beta= 0.70
     Davidson diagonalization with overlap

---- Real-time Memory Report at c_bands before calling an iterative solver
           810 MiB given to the printing process from OS
             0 MiB allocation reported by mallinfo(arena+hblkhd)
         76776 MiB available memory on the node where the printing process lives
------------------
     ethr =  3.12E-05,  avg # of iterations =  1.0

     total cpu time spent up to now is       54.0 secs

     total energy              =   -2082.23983629 Ry
     estimated scf accuracy    <       0.08081051 Ry

     iteration # 46     ecut=    30.00 Ry     beta= 0.70
     Davidson diagonalization with overlap

---- Real-time Memory Report at c_bands before calling an iterative solver
           810 MiB given to the printing process from OS
             0 MiB allocation reported by mallinfo(arena+hblkhd)
         76777 MiB available memory on the node where the printing process lives
------------------
     ethr =  3.12E-05,  avg # of iterations =  1.0

     total cpu time spent up to now is       54.9 secs

     total energy              =   -2082.23948452 Ry
     estimated scf accuracy    <       0.10459656 Ry

     iteration # 47     ecut=    30.00 Ry     beta= 0.70
     Davidson diagonalization with overlap

---- Real-time Memory Report at c_bands before calling an iterative solver
           810 MiB given to the printing process from OS
             0 MiB allocation reported by mallinfo(arena+hblkhd)
         76776 MiB available memory on the node where the printing process lives
------------------
     ethr =  3.12E-05,  avg # of iterations =  1.0

     total cpu time spent up to now is       55.9 secs

     total energy              =   -2082.23986689 Ry
     estimated scf accuracy    <       0.00393210 Ry

     iteration # 48     ecut=    30.00 Ry     beta= 0.70
     Davidson diagonalization with overlap

---- Real-time Memory Report at c_bands before calling an iterative solver
           810 MiB given to the printing process from OS
             0 MiB allocation reported by mallinfo(arena+hblkhd)
         76776 MiB available memory on the node where the printing process lives
------------------
     ethr =  4.80E-06,  avg # of iterations =  1.0

     total cpu time spent up to now is       56.9 secs

     total energy              =   -2082.23992098 Ry
     estimated scf accuracy    <       0.00284039 Ry

     iteration # 49     ecut=    30.00 Ry     beta= 0.70
     Davidson diagonalization with overlap

---- Real-time Memory Report at c_bands before calling an iterative solver
           810 MiB given to the printing process from OS
             0 MiB allocation reported by mallinfo(arena+hblkhd)
         76776 MiB available memory on the node where the printing process lives
------------------
     ethr =  3.46E-06,  avg # of iterations =  1.0

     total cpu time spent up to now is       57.8 secs

     total energy              =   -2082.23980733 Ry
     estimated scf accuracy    <       0.00862543 Ry

     iteration # 50     ecut=    30.00 Ry     beta= 0.70
     Davidson diagonalization with overlap

---- Real-time Memory Report at c_bands before calling an iterative solver
           810 MiB given to the printing process from OS
             0 MiB allocation reported by mallinfo(arena+hblkhd)
         76777 MiB available memory on the node where the printing process lives
------------------
     ethr =  3.46E-06,  avg # of iterations =  1.0

     total cpu time spent up to now is       58.8 secs

     total energy              =   -2082.23967097 Ry
     estimated scf accuracy    <       0.01884737 Ry

     iteration # 51     ecut=    30.00 Ry     beta= 0.70
     Davidson diagonalization with overlap

---- Real-time Memory Report at c_bands before calling an iterative solver
           810 MiB given to the printing process from OS
             0 MiB allocation reported by mallinfo(arena+hblkhd)
         76777 MiB available memory on the node where the printing process lives
------------------
     ethr =  3.46E-06,  avg # of iterations =  1.0

     total cpu time spent up to now is       59.8 secs

     total energy              =   -2082.24003644 Ry
     estimated scf accuracy    <       0.00478126 Ry

     iteration # 52     ecut=    30.00 Ry     beta= 0.70
     Davidson diagonalization with overlap

---- Real-time Memory Report at c_bands before calling an iterative solver
           810 MiB given to the printing process from OS
             0 MiB allocation reported by mallinfo(arena+hblkhd)
         76777 MiB available memory on the node where the printing process lives
------------------
     ethr =  3.46E-06,  avg # of iterations =  1.0

     total cpu time spent up to now is       60.7 secs

     total energy              =   -2082.24035336 Ry
     estimated scf accuracy    <       0.33091071 Ry

     iteration # 53     ecut=    30.00 Ry     beta= 0.70
     Davidson diagonalization with overlap

---- Real-time Memory Report at c_bands before calling an iterative solver
           810 MiB given to the printing process from OS
             0 MiB allocation reported by mallinfo(arena+hblkhd)
         76777 MiB available memory on the node where the printing process lives
------------------
     ethr =  3.46E-06,  avg # of iterations =  1.0

     total cpu time spent up to now is       61.7 secs

     total energy              =   -2082.23873706 Ry
     estimated scf accuracy    <       0.24780105 Ry

     iteration # 54     ecut=    30.00 Ry     beta= 0.70
     Davidson diagonalization with overlap

---- Real-time Memory Report at c_bands before calling an iterative solver
           810 MiB given to the printing process from OS
             0 MiB allocation reported by mallinfo(arena+hblkhd)
         76777 MiB available memory on the node where the printing process lives
------------------
     ethr =  3.46E-06,  avg # of iterations =  1.0

     total cpu time spent up to now is       62.7 secs

     total energy              =   -2082.23984649 Ry
     estimated scf accuracy    <       0.05363862 Ry

     iteration # 55     ecut=    30.00 Ry     beta= 0.70
     Davidson diagonalization with overlap

---- Real-time Memory Report at c_bands before calling an iterative solver
           810 MiB given to the printing process from OS
             0 MiB allocation reported by mallinfo(arena+hblkhd)
         76778 MiB available memory on the node where the printing process lives
------------------
     ethr =  3.46E-06,  avg # of iterations =  1.0

     total cpu time spent up to now is       63.6 secs

     total energy              =   -2082.24025439 Ry
     estimated scf accuracy    <       0.00080617 Ry

     iteration # 56     ecut=    30.00 Ry     beta= 0.70
     Davidson diagonalization with overlap

---- Real-time Memory Report at c_bands before calling an iterative solver
           810 MiB given to the printing process from OS
             0 MiB allocation reported by mallinfo(arena+hblkhd)
         76778 MiB available memory on the node where the printing process lives
------------------
     ethr =  9.83E-07,  avg # of iterations =  1.0

     total cpu time spent up to now is       64.7 secs

     total energy              =   -2082.24025886 Ry
     estimated scf accuracy    <       0.01617372 Ry

     iteration # 57     ecut=    30.00 Ry     beta= 0.70
     Davidson diagonalization with overlap

---- Real-time Memory Report at c_bands before calling an iterative solver
           810 MiB given to the printing process from OS
             0 MiB allocation reported by mallinfo(arena+hblkhd)
         76780 MiB available memory on the node where the printing process lives
------------------
     ethr =  9.83E-07,  avg # of iterations =  1.0

     total cpu time spent up to now is       65.6 secs

     total energy              =   -2082.24031416 Ry
     estimated scf accuracy    <       0.00179920 Ry

     iteration # 58     ecut=    30.00 Ry     beta= 0.70
     Davidson diagonalization with overlap

---- Real-time Memory Report at c_bands before calling an iterative solver
           810 MiB given to the printing process from OS
             0 MiB allocation reported by mallinfo(arena+hblkhd)
         76780 MiB available memory on the node where the printing process lives
------------------
     ethr =  9.83E-07,  avg # of iterations =  2.0

     total cpu time spent up to now is       66.6 secs

     total energy              =   -2082.24028501 Ry
     estimated scf accuracy    <       0.02706264 Ry

     iteration # 59     ecut=    30.00 Ry     beta= 0.70
     Davidson diagonalization with overlap

---- Real-time Memory Report at c_bands before calling an iterative solver
           810 MiB given to the printing process from OS
             0 MiB allocation reported by mallinfo(arena+hblkhd)
         76779 MiB available memory on the node where the printing process lives
------------------
     ethr =  9.83E-07,  avg # of iterations =  1.0

     total cpu time spent up to now is       67.6 secs

     total energy              =   -2082.24044885 Ry
     estimated scf accuracy    <       0.00076499 Ry

     iteration # 60     ecut=    30.00 Ry     beta= 0.70
     Davidson diagonalization with overlap

---- Real-time Memory Report at c_bands before calling an iterative solver
           810 MiB given to the printing process from OS
             0 MiB allocation reported by mallinfo(arena+hblkhd)
         76780 MiB available memory on the node where the printing process lives
------------------
     ethr =  9.33E-07,  avg # of iterations =  1.0

     total cpu time spent up to now is       68.6 secs

     total energy              =   -2082.24052554 Ry
     estimated scf accuracy    <       0.03759805 Ry

     iteration # 61     ecut=    30.00 Ry     beta= 0.70
     Davidson diagonalization with overlap

---- Real-time Memory Report at c_bands before calling an iterative solver
           810 MiB given to the printing process from OS
             0 MiB allocation reported by mallinfo(arena+hblkhd)
         76779 MiB available memory on the node where the printing process lives
------------------
     ethr =  9.33E-07,  avg # of iterations =  1.0

     total cpu time spent up to now is       69.6 secs

     total energy              =   -2082.24051993 Ry
     estimated scf accuracy    <       0.02398902 Ry

     iteration # 62     ecut=    30.00 Ry     beta= 0.70
     Davidson diagonalization with overlap

---- Real-time Memory Report at c_bands before calling an iterative solver
           810 MiB given to the printing process from OS
             0 MiB allocation reported by mallinfo(arena+hblkhd)
         76779 MiB available memory on the node where the printing process lives
------------------
     ethr =  9.33E-07,  avg # of iterations =  1.0

     total cpu time spent up to now is       70.6 secs

     total energy              =   -2082.24044582 Ry
     estimated scf accuracy    <       0.02199145 Ry

     iteration # 63     ecut=    30.00 Ry     beta= 0.70
     Davidson diagonalization with overlap

---- Real-time Memory Report at c_bands before calling an iterative solver
           810 MiB given to the printing process from OS
             0 MiB allocation reported by mallinfo(arena+hblkhd)
         76779 MiB available memory on the node where the printing process lives
------------------
     ethr =  9.33E-07,  avg # of iterations =  1.0

     total cpu time spent up to now is       71.9 secs

     total energy              =   -2082.24037282 Ry
     estimated scf accuracy    <       0.01132336 Ry

     iteration # 64     ecut=    30.00 Ry     beta= 0.70
     Davidson diagonalization with overlap

---- Real-time Memory Report at c_bands before calling an iterative solver
           810 MiB given to the printing process from OS
             0 MiB allocation reported by mallinfo(arena+hblkhd)
         76767 MiB available memory on the node where the printing process lives
------------------
     ethr =  9.33E-07,  avg # of iterations =  1.0

     total cpu time spent up to now is       73.2 secs

     total energy              =   -2082.24043547 Ry
     estimated scf accuracy    <       0.00158137 Ry

     iteration # 65     ecut=    30.00 Ry     beta= 0.70
     Davidson diagonalization with overlap

---- Real-time Memory Report at c_bands before calling an iterative solver
           810 MiB given to the printing process from OS
             0 MiB allocation reported by mallinfo(arena+hblkhd)
         76768 MiB available memory on the node where the printing process lives
------------------
     ethr =  9.33E-07,  avg # of iterations =  1.0

     total cpu time spent up to now is       74.2 secs

     total energy              =   -2082.24048468 Ry
     estimated scf accuracy    <       0.00080729 Ry

     iteration # 66     ecut=    30.00 Ry     beta= 0.70
     Davidson diagonalization with overlap

---- Real-time Memory Report at c_bands before calling an iterative solver
           810 MiB given to the printing process from OS
             0 MiB allocation reported by mallinfo(arena+hblkhd)
         76769 MiB available memory on the node where the printing process lives
------------------
     ethr =  9.33E-07,  avg # of iterations =  1.0

     total cpu time spent up to now is       75.2 secs

     total energy              =   -2082.24050794 Ry
     estimated scf accuracy    <       0.00036251 Ry

     iteration # 67     ecut=    30.00 Ry     beta= 0.70
     Davidson diagonalization with overlap

---- Real-time Memory Report at c_bands before calling an iterative solver
           810 MiB given to the printing process from OS
             0 MiB allocation reported by mallinfo(arena+hblkhd)
         76769 MiB available memory on the node where the printing process lives
------------------
     ethr =  4.42E-07,  avg # of iterations =  1.0

     total cpu time spent up to now is       76.2 secs

     total energy              =   -2082.24051666 Ry
     estimated scf accuracy    <       0.00029522 Ry

     iteration # 68     ecut=    30.00 Ry     beta= 0.70
     Davidson diagonalization with overlap

---- Real-time Memory Report at c_bands before calling an iterative solver
           810 MiB given to the printing process from OS
             0 MiB allocation reported by mallinfo(arena+hblkhd)
         76770 MiB available memory on the node where the printing process lives
------------------
     ethr =  3.60E-07,  avg # of iterations =  1.0

     total cpu time spent up to now is       77.1 secs

     total energy              =   -2082.24051065 Ry
     estimated scf accuracy    <       0.00653532 Ry

     iteration # 69     ecut=    30.00 Ry     beta= 0.70
     Davidson diagonalization with overlap

---- Real-time Memory Report at c_bands before calling an iterative solver
           810 MiB given to the printing process from OS
             0 MiB allocation reported by mallinfo(arena+hblkhd)
         76771 MiB available memory on the node where the printing process lives
------------------
     ethr =  3.60E-07,  avg # of iterations =  1.0

     total cpu time spent up to now is       78.1 secs

     total energy              =   -2082.24052367 Ry
     estimated scf accuracy    <       0.00073765 Ry

     iteration # 70     ecut=    30.00 Ry     beta= 0.70
     Davidson diagonalization with overlap

---- Real-time Memory Report at c_bands before calling an iterative solver
           810 MiB given to the printing process from OS
             0 MiB allocation reported by mallinfo(arena+hblkhd)
         76771 MiB available memory on the node where the printing process lives
------------------
     ethr =  3.60E-07,  avg # of iterations =  1.0

     total cpu time spent up to now is       79.1 secs

     total energy              =   -2082.24052251 Ry
     estimated scf accuracy    <       0.00148295 Ry

     iteration # 71     ecut=    30.00 Ry     beta= 0.70
     Davidson diagonalization with overlap

---- Real-time Memory Report at c_bands before calling an iterative solver
           810 MiB given to the printing process from OS
             0 MiB allocation reported by mallinfo(arena+hblkhd)
         76772 MiB available memory on the node where the printing process lives
------------------
     ethr =  3.60E-07,  avg # of iterations =  1.0

     total cpu time spent up to now is       80.0 secs

     total energy              =   -2082.24051560 Ry
     estimated scf accuracy    <       0.00041640 Ry

     iteration # 72     ecut=    30.00 Ry     beta= 0.70
     Davidson diagonalization with overlap

---- Real-time Memory Report at c_bands before calling an iterative solver
           810 MiB given to the printing process from OS
             0 MiB allocation reported by mallinfo(arena+hblkhd)
         76772 MiB available memory on the node where the printing process lives
------------------
     ethr =  3.60E-07,  avg # of iterations =  1.0

     total cpu time spent up to now is       81.0 secs

     total energy              =   -2082.24044474 Ry
     estimated scf accuracy    <       0.00694840 Ry

     iteration # 73     ecut=    30.00 Ry     beta= 0.70
     Davidson diagonalization with overlap

---- Real-time Memory Report at c_bands before calling an iterative solver
           810 MiB given to the printing process from OS
             0 MiB allocation reported by mallinfo(arena+hblkhd)
         76773 MiB available memory on the node where the printing process lives
------------------
     ethr =  3.60E-07,  avg # of iterations =  1.0

     total cpu time spent up to now is       82.0 secs

     total energy              =   -2082.24052461 Ry
     estimated scf accuracy    <       0.00077273 Ry

     iteration # 74     ecut=    30.00 Ry     beta= 0.70
     Davidson diagonalization with overlap

---- Real-time Memory Report at c_bands before calling an iterative solver
           810 MiB given to the printing process from OS
             0 MiB allocation reported by mallinfo(arena+hblkhd)
         76773 MiB available memory on the node where the printing process lives
------------------
     ethr =  3.60E-07,  avg # of iterations =  1.0

     total cpu time spent up to now is       83.0 secs

     total energy              =   -2082.24052545 Ry
     estimated scf accuracy    <       0.00024189 Ry

     iteration # 75     ecut=    30.00 Ry     beta= 0.70
     Davidson diagonalization with overlap

---- Real-time Memory Report at c_bands before calling an iterative solver
           810 MiB given to the printing process from OS
             0 MiB allocation reported by mallinfo(arena+hblkhd)
         76783 MiB available memory on the node where the printing process lives
------------------
     ethr =  2.95E-07,  avg # of iterations =  1.0

     total cpu time spent up to now is       84.0 secs

     total energy              =   -2082.24052635 Ry
     estimated scf accuracy    <       0.00020623 Ry

     iteration # 76     ecut=    30.00 Ry     beta= 0.70
     Davidson diagonalization with overlap

---- Real-time Memory Report at c_bands before calling an iterative solver
           810 MiB given to the printing process from OS
             0 MiB allocation reported by mallinfo(arena+hblkhd)
         76782 MiB available memory on the node where the printing process lives
------------------
     ethr =  2.52E-07,  avg # of iterations =  1.0

     total cpu time spent up to now is       85.0 secs

     total energy              =   -2082.24052712 Ry
     estimated scf accuracy    <       0.00009177 Ry

     iteration # 77     ecut=    30.00 Ry     beta= 0.70
     Davidson diagonalization with overlap

---- Real-time Memory Report at c_bands before calling an iterative solver
           810 MiB given to the printing process from OS
             0 MiB allocation reported by mallinfo(arena+hblkhd)
         76783 MiB available memory on the node where the printing process lives
------------------
     ethr =  1.12E-07,  avg # of iterations =  1.0

     total cpu time spent up to now is       85.9 secs

     total energy              =   -2082.24052788 Ry
     estimated scf accuracy    <       0.00033465 Ry

     iteration # 78     ecut=    30.00 Ry     beta= 0.70
     Davidson diagonalization with overlap

---- Real-time Memory Report at c_bands before calling an iterative solver
           810 MiB given to the printing process from OS
             0 MiB allocation reported by mallinfo(arena+hblkhd)
         76784 MiB available memory on the node where the printing process lives
------------------
     ethr =  1.12E-07,  avg # of iterations =  1.0

     total cpu time spent up to now is       86.9 secs

     total energy              =   -2082.24052881 Ry
     estimated scf accuracy    <       0.00031461 Ry

     iteration # 79     ecut=    30.00 Ry     beta= 0.70
     Davidson diagonalization with overlap

---- Real-time Memory Report at c_bands before calling an iterative solver
           810 MiB given to the printing process from OS
             0 MiB allocation reported by mallinfo(arena+hblkhd)
         76785 MiB available memory on the node where the printing process lives
------------------
     ethr =  1.12E-07,  avg # of iterations =  1.0

     total cpu time spent up to now is       87.9 secs

     total energy              =   -2082.24052296 Ry
     estimated scf accuracy    <       0.00044657 Ry

     iteration # 80     ecut=    30.00 Ry     beta= 0.70
     Davidson diagonalization with overlap

---- Real-time Memory Report at c_bands before calling an iterative solver
           810 MiB given to the printing process from OS
             0 MiB allocation reported by mallinfo(arena+hblkhd)
         76785 MiB available memory on the node where the printing process lives
------------------
     ethr =  1.12E-07,  avg # of iterations =  1.0

     total cpu time spent up to now is       88.9 secs

     total energy              =   -2082.24052604 Ry
     estimated scf accuracy    <       0.00009089 Ry

     iteration # 81     ecut=    30.00 Ry     beta= 0.70
     Davidson diagonalization with overlap

---- Real-time Memory Report at c_bands before calling an iterative solver
           810 MiB given to the printing process from OS
             0 MiB allocation reported by mallinfo(arena+hblkhd)
         76785 MiB available memory on the node where the printing process lives
------------------
     ethr =  1.11E-07,  avg # of iterations =  1.0

     total cpu time spent up to now is       89.9 secs

     total energy              =   -2082.24052097 Ry
     estimated scf accuracy    <       0.00030320 Ry

     iteration # 82     ecut=    30.00 Ry     beta= 0.70
     Davidson diagonalization with overlap

---- Real-time Memory Report at c_bands before calling an iterative solver
           810 MiB given to the printing process from OS
             0 MiB allocation reported by mallinfo(arena+hblkhd)
         76786 MiB available memory on the node where the printing process lives
------------------
     ethr =  1.11E-07,  avg # of iterations =  1.0

     total cpu time spent up to now is       90.9 secs

     total energy              =   -2082.24051109 Ry
     estimated scf accuracy    <       0.00005590 Ry

     iteration # 83     ecut=    30.00 Ry     beta= 0.70
     Davidson diagonalization with overlap

---- Real-time Memory Report at c_bands before calling an iterative solver
           810 MiB given to the printing process from OS
             0 MiB allocation reported by mallinfo(arena+hblkhd)
         76784 MiB available memory on the node where the printing process lives
------------------
     ethr =  6.82E-08,  avg # of iterations =  2.0

     total cpu time spent up to now is       92.3 secs

     total energy              =   -2082.24052451 Ry
     estimated scf accuracy    <       0.00012306 Ry

     iteration # 84     ecut=    30.00 Ry     beta= 0.70
     Davidson diagonalization with overlap

---- Real-time Memory Report at c_bands before calling an iterative solver
           810 MiB given to the printing process from OS
             0 MiB allocation reported by mallinfo(arena+hblkhd)
         76784 MiB available memory on the node where the printing process lives
------------------
     ethr =  6.82E-08,  avg # of iterations =  1.0

     total cpu time spent up to now is       93.3 secs

     total energy              =   -2082.24052810 Ry
     estimated scf accuracy    <       0.00006739 Ry

     iteration # 85     ecut=    30.00 Ry     beta= 0.70
     Davidson diagonalization with overlap

---- Real-time Memory Report at c_bands before calling an iterative solver
           810 MiB given to the printing process from OS
             0 MiB allocation reported by mallinfo(arena+hblkhd)
         76784 MiB available memory on the node where the printing process lives
------------------
     ethr =  6.82E-08,  avg # of iterations =  1.0

     total cpu time spent up to now is       94.3 secs

     total energy              =   -2082.24052533 Ry
     estimated scf accuracy    <       0.00003860 Ry

     iteration # 86     ecut=    30.00 Ry     beta= 0.70
     Davidson diagonalization with overlap

---- Real-time Memory Report at c_bands before calling an iterative solver
           810 MiB given to the printing process from OS
             0 MiB allocation reported by mallinfo(arena+hblkhd)
         76784 MiB available memory on the node where the printing process lives
------------------
     ethr =  4.71E-08,  avg # of iterations =  1.0

     total cpu time spent up to now is       95.2 secs

     total energy              =   -2082.24052506 Ry
     estimated scf accuracy    <       0.00003783 Ry

     iteration # 87     ecut=    30.00 Ry     beta= 0.70
     Davidson diagonalization with overlap

---- Real-time Memory Report at c_bands before calling an iterative solver
           810 MiB given to the printing process from OS
             0 MiB allocation reported by mallinfo(arena+hblkhd)
         76785 MiB available memory on the node where the printing process lives
------------------
     ethr =  4.61E-08,  avg # of iterations =  1.0

     total cpu time spent up to now is       96.2 secs

     total energy              =   -2082.24052907 Ry
     estimated scf accuracy    <       0.00029789 Ry

     iteration # 88     ecut=    30.00 Ry     beta= 0.70
     Davidson diagonalization with overlap

---- Real-time Memory Report at c_bands before calling an iterative solver
           810 MiB given to the printing process from OS
             0 MiB allocation reported by mallinfo(arena+hblkhd)
         76785 MiB available memory on the node where the printing process lives
------------------
     ethr =  4.61E-08,  avg # of iterations =  1.0

     total cpu time spent up to now is       97.2 secs

     total energy              =   -2082.24052836 Ry
     estimated scf accuracy    <       0.00022445 Ry

     iteration # 89     ecut=    30.00 Ry     beta= 0.70
     Davidson diagonalization with overlap

---- Real-time Memory Report at c_bands before calling an iterative solver
           810 MiB given to the printing process from OS
             0 MiB allocation reported by mallinfo(arena+hblkhd)
         76785 MiB available memory on the node where the printing process lives
------------------
     ethr =  4.61E-08,  avg # of iterations =  1.0

     total cpu time spent up to now is       98.2 secs

     total energy              =   -2082.24052884 Ry
     estimated scf accuracy    <       0.00014301 Ry

     iteration # 90     ecut=    30.00 Ry     beta= 0.70
     Davidson diagonalization with overlap

---- Real-time Memory Report at c_bands before calling an iterative solver
           810 MiB given to the printing process from OS
             0 MiB allocation reported by mallinfo(arena+hblkhd)
         76786 MiB available memory on the node where the printing process lives
------------------
     ethr =  4.61E-08,  avg # of iterations =  1.0

     total cpu time spent up to now is       99.2 secs

     total energy              =   -2082.24052877 Ry
     estimated scf accuracy    <       0.00025918 Ry

     iteration # 91     ecut=    30.00 Ry     beta= 0.70
     Davidson diagonalization with overlap

---- Real-time Memory Report at c_bands before calling an iterative solver
           810 MiB given to the printing process from OS
             0 MiB allocation reported by mallinfo(arena+hblkhd)
         76787 MiB available memory on the node where the printing process lives
------------------
     ethr =  4.61E-08,  avg # of iterations =  1.0

     total cpu time spent up to now is      100.1 secs

     total energy              =   -2082.24052832 Ry
     estimated scf accuracy    <       0.00023742 Ry

     iteration # 92     ecut=    30.00 Ry     beta= 0.70
     Davidson diagonalization with overlap

---- Real-time Memory Report at c_bands before calling an iterative solver
           810 MiB given to the printing process from OS
             0 MiB allocation reported by mallinfo(arena+hblkhd)
         76787 MiB available memory on the node where the printing process lives
------------------
     ethr =  4.61E-08,  avg # of iterations =  1.0

     total cpu time spent up to now is      101.1 secs

     total energy              =   -2082.24052804 Ry
     estimated scf accuracy    <       0.00032510 Ry

     iteration # 93     ecut=    30.00 Ry     beta= 0.70
     Davidson diagonalization with overlap

---- Real-time Memory Report at c_bands before calling an iterative solver
           810 MiB given to the printing process from OS
             0 MiB allocation reported by mallinfo(arena+hblkhd)
         76787 MiB available memory on the node where the printing process lives
------------------
     ethr =  4.61E-08,  avg # of iterations =  1.0

     total cpu time spent up to now is      102.1 secs

     total energy              =   -2082.24052772 Ry
     estimated scf accuracy    <       0.00039648 Ry

     iteration # 94     ecut=    30.00 Ry     beta= 0.70
     Davidson diagonalization with overlap

---- Real-time Memory Report at c_bands before calling an iterative solver
           810 MiB given to the printing process from OS
             0 MiB allocation reported by mallinfo(arena+hblkhd)
         76787 MiB available memory on the node where the printing process lives
------------------
     ethr =  4.61E-08,  avg # of iterations =  1.0

     total cpu time spent up to now is      103.1 secs

     total energy              =   -2082.24052793 Ry
     estimated scf accuracy    <       0.00000671 Ry

     iteration # 95     ecut=    30.00 Ry     beta= 0.70
     Davidson diagonalization with overlap

---- Real-time Memory Report at c_bands before calling an iterative solver
           810 MiB given to the printing process from OS
             0 MiB allocation reported by mallinfo(arena+hblkhd)
         76785 MiB available memory on the node where the printing process lives
------------------
     ethr =  8.18E-09,  avg # of iterations =  2.0

     total cpu time spent up to now is      104.1 secs

     total energy              =   -2082.24052659 Ry
     estimated scf accuracy    <       0.00004810 Ry

     iteration # 96     ecut=    30.00 Ry     beta= 0.70
     Davidson diagonalization with overlap

---- Real-time Memory Report at c_bands before calling an iterative solver
           810 MiB given to the printing process from OS
             0 MiB allocation reported by mallinfo(arena+hblkhd)
         76784 MiB available memory on the node where the printing process lives
------------------
     ethr =  8.18E-09,  avg # of iterations =  2.0

     total cpu time spent up to now is      105.1 secs

     total energy              =   -2082.24052590 Ry
     estimated scf accuracy    <       0.00035894 Ry

     iteration # 97     ecut=    30.00 Ry     beta= 0.70
     Davidson diagonalization with overlap

---- Real-time Memory Report at c_bands before calling an iterative solver
           810 MiB given to the printing process from OS
             0 MiB allocation reported by mallinfo(arena+hblkhd)
         76785 MiB available memory on the node where the printing process lives
------------------
     ethr =  8.18E-09,  avg # of iterations =  2.0

     total cpu time spent up to now is      106.1 secs

     total energy              =   -2082.24052646 Ry
     estimated scf accuracy    <       0.00009379 Ry

     iteration # 98     ecut=    30.00 Ry     beta= 0.70
     Davidson diagonalization with overlap

---- Real-time Memory Report at c_bands before calling an iterative solver
           810 MiB given to the printing process from OS
             0 MiB allocation reported by mallinfo(arena+hblkhd)
         76785 MiB available memory on the node where the printing process lives
------------------
     ethr =  8.18E-09,  avg # of iterations =  1.0

     total cpu time spent up to now is      107.0 secs

     total energy              =   -2082.24052876 Ry
     estimated scf accuracy    <       0.00020130 Ry

     iteration # 99     ecut=    30.00 Ry     beta= 0.70
     Davidson diagonalization with overlap

---- Real-time Memory Report at c_bands before calling an iterative solver
           810 MiB given to the printing process from OS
             0 MiB allocation reported by mallinfo(arena+hblkhd)
         76785 MiB available memory on the node where the printing process lives
------------------
     ethr =  8.18E-09,  avg # of iterations =  1.0

     total cpu time spent up to now is      108.0 secs

     total energy              =   -2082.24052626 Ry
     estimated scf accuracy    <       0.00017977 Ry

     iteration #100     ecut=    30.00 Ry     beta= 0.70
     Davidson diagonalization with overlap

---- Real-time Memory Report at c_bands before calling an iterative solver
           810 MiB given to the printing process from OS
             0 MiB allocation reported by mallinfo(arena+hblkhd)
         76785 MiB available memory on the node where the printing process lives
------------------
     ethr =  8.18E-09,  avg # of iterations =  1.0

     total cpu time spent up to now is      109.0 secs

     total energy              =   -2082.24052997 Ry
     estimated scf accuracy    <       0.00013868 Ry

     End of self-consistent calculation

     convergence NOT achieved after 100 iterations: stopping

     Writing config to output data dir new_calculations/myprefix.save/
     Message from routine punch:
     wavefunctions written to file
 
     init_run     :    145.77s CPU      6.60s WALL (       1 calls)
     electrons    :   3067.33s CPU    102.22s WALL (       1 calls)

     Called by init_run:
     wfcinit      :     41.34s CPU      1.37s WALL (       1 calls)
     wfcinit:atom :      0.02s CPU      0.00s WALL (       1 calls)
     wfcinit:wfcr :     41.20s CPU      1.36s WALL (       1 calls)
     potinit      :     27.52s CPU      0.92s WALL (       1 calls)
     hinit0       :     68.89s CPU      3.99s WALL (       1 calls)

     Called by electrons:
     c_bands      :    999.95s CPU     31.83s WALL (     100 calls)
     sum_band     :    506.80s CPU     18.02s WALL (     100 calls)
     v_of_rho     :     67.39s CPU      2.24s WALL (     101 calls)
     v_h          :      4.49s CPU      0.15s WALL (     101 calls)
     v_xc         :     62.65s CPU      2.08s WALL (     101 calls)
     newd         :    314.50s CPU     10.39s WALL (     101 calls)
     PAW_pot      :   1157.05s CPU     38.92s WALL (     101 calls)
     mix_rho      :     14.87s CPU      0.49s WALL (     100 calls)

     Called by c_bands:
     init_us_2    :      2.30s CPU      0.08s WALL (     201 calls)
     init_us_2:cp :      1.99s CPU      0.07s WALL (     201 calls)
     regterg      :    989.05s CPU     31.47s WALL (     100 calls)

     Called by sum_band:
     sum_band:wei :      0.39s CPU      0.01s WALL (     100 calls)
     sum_band:loo :    224.37s CPU      7.12s WALL (     100 calls)
     sum_band:buf :      0.08s CPU      0.00s WALL (     100 calls)
     sum_band:ini :      1.28s CPU      0.04s WALL (     100 calls)
     sum_band:cal :      0.77s CPU      0.03s WALL (     100 calls)
     sum_band:bec :      0.26s CPU      0.01s WALL (     100 calls)
     addusdens    :    272.02s CPU     10.56s WALL (     100 calls)
     addusd:skk   :      0.53s CPU      0.02s WALL (     300 calls)
     addusd:dgemm :     19.06s CPU      2.50s WALL (     300 calls)
     addusd:qvan2 :    243.14s CPU      7.73s WALL (     300 calls)

     Called by *egterg:
     rdiaghg      :     17.65s CPU      0.59s WALL (     237 calls)
     regterg:over :      1.50s CPU      0.05s WALL (     137 calls)
     regterg:upda :      1.14s CPU      0.04s WALL (     137 calls)
     regterg:last :      1.35s CPU      0.04s WALL (     120 calls)
     h_psi        :   1000.30s CPU     31.84s WALL (     238 calls)
     s_psi        :      0.56s CPU      0.02s WALL (     238 calls)
     g_psi        :      0.16s CPU      0.01s WALL (     137 calls)

     Called by h_psi:
     h_psi:calbec :      3.07s CPU      0.10s WALL (     238 calls)
     vloc_psi     :    994.95s CPU     31.67s WALL (     238 calls)
     add_vuspsi   :      0.96s CPU      0.03s WALL (     238 calls)

     General routines
     calbec       :      3.37s CPU      0.11s WALL (     338 calls)
     fft          :     64.59s CPU      2.51s WALL (    1111 calls)
     ffts         :     15.61s CPU      0.51s WALL (     201 calls)
     fftw         :   1109.81s CPU     35.21s WALL (   12872 calls)
     interpolate  :     19.88s CPU      0.65s WALL (     101 calls)
     davcio       :      0.00s CPU      0.01s WALL (      19 calls)
 
     Parallel routines

     PAW routines
     PAW_pot      :   1157.05s CPU     38.92s WALL (     101 calls)
     PAW_symme    :      1.49s CPU      0.05s WALL (     201 calls)
 
     PWSCF        :  53m33.77s CPU   1m49.36s WALL

 
   This run was terminated on:  19:16: 4  20May2023            

=------------------------------------------------------------------------------=
   JOB DONE.
=------------------------------------------------------------------------------=
