
     Program PWSCF v.7.0 starts on 20May2023 at 21: 6:21 

     This program is part of the open-source Quantum ESPRESSO suite
     for quantum simulation of materials; please cite
         "P. Giannozzi et al., J. Phys.:Condens. Matter 21 395502 (2009);
         "P. Giannozzi et al., J. Phys.:Condens. Matter 29 465901 (2017);
         "P. Giannozzi et al., J. Chem. Phys. 152 154105 (2020);
          URL http://www.quantum-espresso.org", 
     in publications or presentations arising from this work. More details at
     http://www.quantum-espresso.org/quote

     Parallel version (MPI & OpenMP), running on      32 processor cores
     Number of MPI processes:                 1
     Threads/MPI process:                    32

     MPI processes distributed on     1 nodes
     171306 MiB available memory on the printing compute node when the environment starts
 
     Reading input from espresso_22239.pwi
Warning: card &CELL ignored
Warning: card / ignored

     Current dimensions of program PWSCF are:
     Max number of different atomic species (ntypx) = 10
     Max number of k-points (npk) =  40000
     Max angular momentum in pseudopotentials (lmaxx) =  4
     file Fe.pbe-spn-kjpaw_psl.0.2.1.UPF: wavefunction(s)  3D renormalized

     gamma-point specific algorithms are used
     Message from routine setup:
     using ibrav=0 with symmetry is DISCOURAGED, use correct ibrav instead

     Subspace diagonalization in iterative solution of the eigenvalue problem:
     a serial algorithm will be used

 
     G-vector sticks info
     --------------------
     sticks:   dense  smooth     PW     G-vecs:    dense   smooth      PW
     Sum         823     421    109                33463    11851    1497
 
     Using Slab Decomposition
 


     bravais-lattice index     =            0
     lattice parameter (alat)  =       7.0449  a.u.
     unit-cell volume          =     532.6480 (a.u.)^3
     number of atoms/cell      =            3
     number of atomic types    =            2
     number of electrons       =        30.00
     number of Kohn-Sham states=           19
     kinetic-energy cutoff     =      30.0000  Ry
     charge density cutoff     =     240.0000  Ry
     scf convergence threshold =      1.0E-06
     mixing beta               =       0.7000
     number of iterations used =            8  plain     mixing
     Exchange-correlation=  SLA  PW   PBX  PBC
                           (   1   4   3   4   0   0   0)

     celldm(1)=   7.044902  celldm(2)=   0.000000  celldm(3)=   0.000000
     celldm(4)=   0.000000  celldm(5)=   0.000000  celldm(6)=   0.000000

     crystal axes: (cart. coord. in units of alat)
               a(1) = (   1.000000   0.000000   0.000000 )  
               a(2) = (  -0.500000   0.866025   0.000000 )  
               a(3) = (   0.000000   0.000000   1.759077 )  

     reciprocal axes: (cart. coord. in units 2 pi/alat)
               b(1) = (  1.000000  0.577350  0.000000 )  
               b(2) = (  0.000000  1.154700  0.000000 )  
               b(3) = (  0.000000  0.000000  0.568480 )  


     PseudoPot. # 1 for Fe read from file:
     /home/pragov/projects/rrg-bengioy-ad/pragov/crystal_structure_design/SSSP/Fe.pbe-spn-kjpaw_psl.0.2.1.UPF
     MD5 check sum: e86618425769142926afa95317d90200
     Pseudo is Projector augmented-wave + core cor, Zval = 16.0
     Generated using "atomic" code by A. Dal Corso  v.5.0.99 svn rev. 10869
     Shape of augmentation charge: PSQ
     Using radial grid of 1191 points,  6 beta functions with: 
                l(1) =   0
                l(2) =   0
                l(3) =   1
                l(4) =   1
                l(5) =   2
                l(6) =   2
     Q(r) pseudized with 0 coefficients 


     PseudoPot. # 2 for Br read from file:
     /home/pragov/projects/rrg-bengioy-ad/pragov/crystal_structure_design/SSSP/br_pbe_v1.4.uspp.F.UPF
     MD5 check sum: d3ffb7b29f6225aa16fe06858fb2a80b
     Pseudo is Ultrasoft + core correction, Zval =  7.0
     Generated by new atomic code, or converted to UPF format
     Using radial grid of  879 points,  6 beta functions with: 
                l(1) =   0
                l(2) =   0
                l(3) =   1
                l(4) =   1
                l(5) =   2
                l(6) =   2
     Q(r) pseudized with  8 coefficients,  rinner =    1.100   1.100   1.100
                                                       1.100   1.100

     atomic species   valence    mass     pseudopotential
        Fe            16.00    55.84500     Fe( 1.00)
        Br             7.00    79.90400     Br( 1.00)

     12 Sym. Ops., with inversion, found


                                    s                        frac. trans.

      isym =  1     identity                                     

 cryst.   s( 1) = (     1          0          0      )
                  (     0          1          0      )
                  (     0          0          1      )

 cart.    s( 1) = (  1.0000000  0.0000000  0.0000000 )
                  (  0.0000000  1.0000000  0.0000000 )
                  (  0.0000000  0.0000000  1.0000000 )


      isym =  2     180 deg rotation - cart. axis [1,0,0]        

 cryst.   s( 2) = (     1          0          0      )
                  (    -1         -1          0      )
                  (     0          0         -1      )

 cart.    s( 2) = (  1.0000000 -0.0000002  0.0000000 )
                  (  0.0000000 -1.0000000  0.0000000 )
                  (  0.0000000  0.0000000 -1.0000000 )


      isym =  3     120 deg rotation - cryst. axis [0,0,1]       

 cryst.   s( 3) = (     0          1          0      )
                  (    -1         -1          0      )
                  (     0          0          1      )

 cart.    s( 3) = ( -0.4999999 -0.8660253  0.0000000 )
                  (  0.8660255 -0.5000001  0.0000000 )
                  (  0.0000000  0.0000000  1.0000000 )


      isym =  4     120 deg rotation - cryst. axis [0,0,-1]      

 cryst.   s( 4) = (    -1         -1          0      )
                  (     1          0          0      )
                  (     0          0          1      )

 cart.    s( 4) = ( -0.5000001  0.8660253  0.0000000 )
                  ( -0.8660255 -0.4999999  0.0000000 )
                  (  0.0000000  0.0000000  1.0000000 )


      isym =  5     180 deg rotation - cryst. axis [0,1,0]       

 cryst.   s( 5) = (    -1         -1          0      )
                  (     0          1          0      )
                  (     0          0         -1      )

 cart.    s( 5) = ( -0.5000001 -0.8660252  0.0000000 )
                  ( -0.8660255  0.5000001  0.0000000 )
                  (  0.0000000  0.0000000 -1.0000000 )


      isym =  6     180 deg rotation - cryst. axis [1,1,0]       

 cryst.   s( 6) = (     0          1          0      )
                  (     1          0          0      )
                  (     0          0         -1      )

 cart.    s( 6) = ( -0.4999999  0.8660255  0.0000000 )
                  (  0.8660255  0.4999999  0.0000000 )
                  (  0.0000000  0.0000000 -1.0000000 )


      isym =  7     inversion                                    

 cryst.   s( 7) = (    -1          0          0      )
                  (     0         -1          0      )
                  (     0          0         -1      )

 cart.    s( 7) = ( -1.0000000 -0.0000000  0.0000000 )
                  (  0.0000000 -1.0000000  0.0000000 )
                  (  0.0000000  0.0000000 -1.0000000 )


      isym =  8     inv. 180 deg rotation - cart. axis [1,0,0]   

 cryst.   s( 8) = (    -1          0          0      )
                  (     1          1          0      )
                  (     0          0          1      )

 cart.    s( 8) = ( -1.0000000  0.0000002  0.0000000 )
                  (  0.0000000  1.0000000  0.0000000 )
                  (  0.0000000  0.0000000  1.0000000 )


      isym =  9     inv. 120 deg rotation - cryst. axis [0,0,1]  

 cryst.   s( 9) = (     0         -1          0      )
                  (     1          1          0      )
                  (     0          0         -1      )

 cart.    s( 9) = (  0.4999999  0.8660253  0.0000000 )
                  ( -0.8660255  0.5000001  0.0000000 )
                  (  0.0000000  0.0000000 -1.0000000 )


      isym = 10     inv. 120 deg rotation - cryst. axis [0,0,-1] 

 cryst.   s(10) = (     1          1          0      )
                  (    -1          0          0      )
                  (     0          0         -1      )

 cart.    s(10) = (  0.5000001 -0.8660253  0.0000000 )
                  (  0.8660255  0.4999999  0.0000000 )
                  (  0.0000000  0.0000000 -1.0000000 )


      isym = 11     inv. 180 deg rotation - cryst. axis [0,1,0]  

 cryst.   s(11) = (     1          1          0      )
                  (     0         -1          0      )
                  (     0          0          1      )

 cart.    s(11) = (  0.5000001  0.8660252  0.0000000 )
                  (  0.8660255 -0.5000001  0.0000000 )
                  (  0.0000000  0.0000000  1.0000000 )


      isym = 12     inv. 180 deg rotation - cryst. axis [1,1,0]  

 cryst.   s(12) = (     0         -1          0      )
                  (    -1          0          0      )
                  (     0          0          1      )

 cart.    s(12) = (  0.4999999 -0.8660255  0.0000000 )
                  ( -0.8660255 -0.4999999  0.0000000 )
                  (  0.0000000  0.0000000  1.0000000 )


   Cartesian axes

     site n.     atom                  positions (alat units)
         1           Fe  tau(   1) = (   0.0000000   0.0000000   0.0000000  )
         2           Br  tau(   2) = (   0.5000005   0.2886749   0.4022463  )
         3           Br  tau(   3) = (  -0.0000004   0.5773506   1.3568304  )

   Crystallographic axes

     site n.     atom                  positions (cryst. coord.)
         1           Fe  tau(   1) = (  0.0000000  0.0000000  0.0000000  )
         2           Br  tau(   2) = (  0.6666670  0.3333330  0.2286690  )
         3           Br  tau(   3) = (  0.3333330  0.6666670  0.7713310  )

     number of k points=     1  Methfessel-Paxton smearing, width (Ry)=  0.0010
                       cart. coord. in units 2pi/alat
        k(    1) = (   0.0000000   0.0000000   0.0000000), wk =   2.0000000

                       cryst. coord.
        k(    1) = (   0.0000000   0.0000000   0.0000000), wk =   2.0000000

     Dense  grid:    16732 G-vectors     FFT dimensions: (  36,  36,  64)

     Smooth grid:     5926 G-vectors     FFT dimensions: (  25,  25,  45)

     Dynamical RAM for                 wfc:       0.21 MB

     Dynamical RAM for     wfc (w. buffer):       0.21 MB

     Dynamical RAM for           str. fact:       0.51 MB

     Dynamical RAM for           local pot:       0.00 MB

     Dynamical RAM for          nlocal pot:       0.61 MB

     Dynamical RAM for                qrad:       2.49 MB

     Dynamical RAM for          rho,v,vnew:       2.66 MB

     Dynamical RAM for               rhoin:       0.89 MB

     Dynamical RAM for            rho*nmix:       4.08 MB

     Dynamical RAM for           G-vectors:       1.00 MB

     Dynamical RAM for          h,s,v(r/c):       0.03 MB

     Dynamical RAM for          <psi|beta>:       0.01 MB

     Dynamical RAM for                 psi:       0.43 MB

     Dynamical RAM for                hpsi:       0.43 MB

     Dynamical RAM for                spsi:       0.43 MB

     Dynamical RAM for      wfcinit/wfcrot:       0.48 MB

     Dynamical RAM for           addusdens:      48.00 MB

     Dynamical RAM for          addusforce:      48.64 MB

     Dynamical RAM for         addusstress:      51.32 MB

     Estimated static dynamical RAM per process >      12.31 MB

     Estimated max dynamical RAM per process >      67.71 MB

     Check: negative core charge=   -0.000078

     Initial potential from superposition of free atoms

     starting charge      29.9995, renormalised to      30.0000
     Starting wfcs are   21 randomized atomic wfcs
     Checking if some PAW data can be deallocated... 

     total cpu time spent up to now is        2.4 secs

     Self-consistent Calculation

     iteration #  1     ecut=    30.00 Ry     beta= 0.70
     Davidson diagonalization with overlap

---- Real-time Memory Report at c_bands before calling an iterative solver
           292 MiB given to the printing process from OS
             0 MiB allocation reported by mallinfo(arena+hblkhd)
        171228 MiB available memory on the node where the printing process lives
------------------
     ethr =  1.00E-02,  avg # of iterations =  3.0

     total cpu time spent up to now is        2.7 secs

     total energy              =    -421.44410402 Ry
     estimated scf accuracy    <       1.11972433 Ry

     iteration #  2     ecut=    30.00 Ry     beta= 0.70
     Davidson diagonalization with overlap

---- Real-time Memory Report at c_bands before calling an iterative solver
           321 MiB given to the printing process from OS
             0 MiB allocation reported by mallinfo(arena+hblkhd)
        171162 MiB available memory on the node where the printing process lives
------------------
     ethr =  3.73E-03,  avg # of iterations =  5.0

     total cpu time spent up to now is        2.9 secs

     total energy              =    -419.66301466 Ry
     estimated scf accuracy    <      32.52999109 Ry

     iteration #  3     ecut=    30.00 Ry     beta= 0.70
     Davidson diagonalization with overlap

---- Real-time Memory Report at c_bands before calling an iterative solver
           322 MiB given to the printing process from OS
             0 MiB allocation reported by mallinfo(arena+hblkhd)
        171161 MiB available memory on the node where the printing process lives
------------------
     ethr =  3.73E-03,  avg # of iterations =  4.0

     negative rho (up, down):  1.444E-05 0.000E+00

     total cpu time spent up to now is        3.1 secs

     total energy              =    -422.24266502 Ry
     estimated scf accuracy    <       0.11457221 Ry

     iteration #  4     ecut=    30.00 Ry     beta= 0.70
     Davidson diagonalization with overlap

---- Real-time Memory Report at c_bands before calling an iterative solver
           322 MiB given to the printing process from OS
             0 MiB allocation reported by mallinfo(arena+hblkhd)
        171161 MiB available memory on the node where the printing process lives
------------------
     ethr =  3.82E-04,  avg # of iterations =  2.0

     negative rho (up, down):  1.571E-04 0.000E+00

     total cpu time spent up to now is        3.3 secs

     total energy              =    -422.26349716 Ry
     estimated scf accuracy    <       0.02936086 Ry

     iteration #  5     ecut=    30.00 Ry     beta= 0.70
     Davidson diagonalization with overlap

---- Real-time Memory Report at c_bands before calling an iterative solver
           322 MiB given to the printing process from OS
             0 MiB allocation reported by mallinfo(arena+hblkhd)
        171161 MiB available memory on the node where the printing process lives
------------------
     ethr =  9.79E-05,  avg # of iterations =  2.0

     negative rho (up, down):  2.738E-04 0.000E+00

     total cpu time spent up to now is        3.5 secs

     total energy              =    -422.26425372 Ry
     estimated scf accuracy    <       0.00610764 Ry

     iteration #  6     ecut=    30.00 Ry     beta= 0.70
     Davidson diagonalization with overlap

---- Real-time Memory Report at c_bands before calling an iterative solver
           322 MiB given to the printing process from OS
             0 MiB allocation reported by mallinfo(arena+hblkhd)
        171162 MiB available memory on the node where the printing process lives
------------------
     ethr =  2.04E-05,  avg # of iterations =  2.0

     negative rho (up, down):  3.527E-04 0.000E+00

     total cpu time spent up to now is        3.7 secs

     total energy              =    -422.26490975 Ry
     estimated scf accuracy    <       0.00089938 Ry

     iteration #  7     ecut=    30.00 Ry     beta= 0.70
     Davidson diagonalization with overlap

---- Real-time Memory Report at c_bands before calling an iterative solver
           322 MiB given to the printing process from OS
             0 MiB allocation reported by mallinfo(arena+hblkhd)
        171162 MiB available memory on the node where the printing process lives
------------------
     ethr =  3.00E-06,  avg # of iterations =  2.0

     negative rho (up, down):  4.030E-04 0.000E+00

     total cpu time spent up to now is        3.9 secs

     total energy              =    -422.26509187 Ry
     estimated scf accuracy    <       0.00106409 Ry

     iteration #  8     ecut=    30.00 Ry     beta= 0.70
     Davidson diagonalization with overlap

---- Real-time Memory Report at c_bands before calling an iterative solver
           322 MiB given to the printing process from OS
             0 MiB allocation reported by mallinfo(arena+hblkhd)
        171161 MiB available memory on the node where the printing process lives
------------------
     ethr =  3.00E-06,  avg # of iterations =  2.0

     negative rho (up, down):  4.293E-04 0.000E+00

     total cpu time spent up to now is        4.2 secs

     total energy              =    -422.26524050 Ry
     estimated scf accuracy    <       0.00001040 Ry

     iteration #  9     ecut=    30.00 Ry     beta= 0.70
     Davidson diagonalization with overlap

---- Real-time Memory Report at c_bands before calling an iterative solver
           322 MiB given to the printing process from OS
             0 MiB allocation reported by mallinfo(arena+hblkhd)
        171161 MiB available memory on the node where the printing process lives
------------------
     ethr =  3.47E-08,  avg # of iterations =  4.0

     negative rho (up, down):  4.343E-04 0.000E+00

     total cpu time spent up to now is        4.4 secs

     End of self-consistent calculation

          k = 0.0000 0.0000 0.0000 (   749 PWs)   bands (ev):

   -80.7861 -46.6465 -46.6464 -46.0108 -10.0107  -9.3495   0.2922   2.6021
     2.6022   3.7570   3.9742   3.9742   4.8884   4.8884   5.3481   6.6872
     6.6873   8.5039  10.6423

     occupation numbers 
     1.0000   1.0000   1.0000   1.0000   1.0000   1.0000   1.0000   1.0000
     1.0000   1.0000   1.0000   1.0000   1.0000   1.0000   1.0000  -0.0000
    -0.0000  -0.0000  -0.0000

     the Fermi energy is     6.4799 ev

!    total energy              =    -422.26524513 Ry
     estimated scf accuracy    <       0.00000058 Ry
     smearing contrib. (-TS)   =       0.00000000 Ry
     internal energy E=F+TS    =    -422.26524513 Ry

     The total energy is F=E-TS. E is the sum of the following terms:
     one-electron contribution =    -267.00222109 Ry
     hartree contribution      =     144.62475749 Ry
     xc contribution           =     -87.24235234 Ry
     ewald contribution        =    -136.58242190 Ry
     one-center paw contrib.   =     -76.06300728 Ry
      -> PAW hartree energy AE =     212.08032126 Ry
      -> PAW hartree energy PS =    -211.30032565 Ry
      -> PAW xc energy AE      =    -111.31748507 Ry
      -> PAW xc energy PS      =      34.47448217 Ry
      -> total E_H with PAW    =     145.40475311 Ry
      -> total E_XC with PAW   =    -164.08535524 Ry

     convergence has been achieved in   9 iterations

     negative rho (up, down):  4.343E-04 0.000E+00

     Forces acting on atoms (cartesian axes, Ry/au):

     atom    1 type  1   force =     0.00000000    0.00000000    0.00000000
     atom    2 type  2   force =    -0.00000000    0.00000000   -0.05986703
     atom    3 type  2   force =     0.00000000   -0.00000000    0.05986703
     The non-local contrib.  to forces
     atom    1 type  1   force =     0.00000000   -0.00000000    0.00000000
     atom    2 type  2   force =    -0.00000000   -0.00000000   -0.01043605
     atom    3 type  2   force =     0.00000000    0.00000000    0.01043605
     The ionic contribution  to forces
     atom    1 type  1   force =    -0.00000000    0.00000000    0.00000000
     atom    2 type  2   force =    -0.00000848    0.00000490   14.52200499
     atom    3 type  2   force =     0.00000848   -0.00000490  -14.52200499
     The local contribution  to forces
     atom    1 type  1   force =     0.00014606    0.00011140    0.00073428
     atom    2 type  2   force =     0.00000551   -0.00001400  -14.58174296
     atom    3 type  2   force =    -0.00001931    0.00000400   14.58198218
     The core correction contribution to forces
     atom    1 type  1   force =     0.00000682    0.00000649   -0.00000881
     atom    2 type  2   force =     0.00000073   -0.00000013    0.01043523
     atom    3 type  2   force =     0.00000113    0.00000114   -0.01042446
     The Hubbard contrib.    to forces
     atom    1 type  1   force =     0.00000000    0.00000000    0.00000000
     atom    2 type  2   force =     0.00000000    0.00000000    0.00000000
     atom    3 type  2   force =     0.00000000    0.00000000    0.00000000
     The SCF correction term to forces
     atom    1 type  1   force =    -0.00050739   -0.00033377   -0.00047262
     atom    2 type  2   force =    -0.00000332    0.00000401   -0.00013640
     atom    3 type  2   force =     0.00000407   -0.00001209   -0.00012991

     Total force =     0.084665     Total SCF correction =     0.000792


     Computing stress (Cartesian axis) and pressure


     negative rho (up, down):  4.343E-04 0.000E+00
          total   stress  (Ry/bohr**3)                   (kbar)     P=       -1.23
   0.00042012  -0.00000000   0.00000000           61.80       -0.00        0.00
  -0.00000000   0.00042012   0.00000000           -0.00       61.80        0.00
   0.00000000   0.00000000  -0.00086534            0.00        0.00     -127.30

     kinetic stress (kbar)  12148.63     -0.00      0.00
                               -0.00  12148.63      0.00
                                0.00      0.00  12264.95

     local   stress (kbar) -17040.28      0.02      0.02
                                0.02 -17040.14      0.01
                                0.02      0.01  32953.99

     nonloc. stress (kbar)  -8356.42      0.00      0.00
                                0.00  -8356.42     -0.00
                                0.00     -0.00  -8347.03

     hartree stress (kbar)  21115.62     -0.01     -0.01
                               -0.01  21115.54     -0.01
                               -0.01     -0.01  -2289.15

     exc-cor stress (kbar)   9551.43      0.00     -0.00
                                0.00   9551.43     -0.00
                               -0.00     -0.00   9558.67

     corecor stress (kbar) -13753.77     -0.00     -0.00
                               -0.00 -13753.77      0.00
                               -0.00      0.00 -13754.73

     ewald   stress (kbar)  -3603.44     -0.02     -0.01
                               -0.02  -3603.46      0.01
                               -0.01      0.01 -30514.01

     hubbard stress (kbar)      0.00      0.00      0.00
                                0.00      0.00      0.00
                                0.00      0.00      0.00

     DFT-D   stress (kbar)      0.00      0.00      0.00
                                0.00      0.00      0.00
                                0.00      0.00      0.00

     XDM     stress (kbar)      0.00      0.00      0.00
                                0.00      0.00      0.00
                                0.00      0.00      0.00

     dft-nl  stress (kbar)      0.00      0.00      0.00
                                0.00      0.00      0.00
                                0.00      0.00      0.00

     TS-vdW  stress (kbar)      0.00      0.00      0.00
                                0.00      0.00      0.00
                                0.00      0.00      0.00


                                0.00      0.00      0.00
                                0.00      0.00      0.00


                                0.00      0.00      0.00


     Writing all to output data dir new_calculations/myprefix.save/
 
     init_run     :     58.00s CPU      2.24s WALL (       1 calls)
     electrons    :     60.25s CPU      1.97s WALL (       1 calls)
     forces       :      1.79s CPU      0.06s WALL (       1 calls)
     stress       :      3.51s CPU      0.11s WALL (       1 calls)

     Called by init_run:
     wfcinit      :      8.05s CPU      0.26s WALL (       1 calls)
     wfcinit:atom :      0.01s CPU      0.00s WALL (       1 calls)
     wfcinit:wfcr :      7.97s CPU      0.26s WALL (       1 calls)
     potinit      :     13.23s CPU      0.44s WALL (       1 calls)
     hinit0       :     34.05s CPU      1.44s WALL (       1 calls)

     Called by electrons:
     c_bands      :     18.24s CPU      0.58s WALL (       9 calls)
     sum_band     :     11.77s CPU      0.39s WALL (       9 calls)
     v_of_rho     :      2.57s CPU      0.09s WALL (      10 calls)
     v_h          :      0.24s CPU      0.01s WALL (      10 calls)
     v_xc         :      2.70s CPU      0.09s WALL (      12 calls)
     newd         :     10.19s CPU      0.34s WALL (      10 calls)
     PAW_pot      :     19.13s CPU      0.64s WALL (      10 calls)
     mix_rho      :      0.59s CPU      0.02s WALL (       9 calls)

     Called by c_bands:
     init_us_2    :      0.16s CPU      0.01s WALL (      19 calls)
     init_us_2:cp :      0.14s CPU      0.00s WALL (      19 calls)
     regterg      :     17.79s CPU      0.56s WALL (       9 calls)

     Called by sum_band:
     sum_band:wei :      0.01s CPU      0.00s WALL (       9 calls)
     sum_band:loo :      3.08s CPU      0.10s WALL (       9 calls)
     sum_band:buf :      0.01s CPU      0.00s WALL (       9 calls)
     sum_band:ini :      0.08s CPU      0.00s WALL (       9 calls)
     sum_band:cal :      0.03s CPU      0.00s WALL (       9 calls)
     sum_band:bec :      0.02s CPU      0.00s WALL (       9 calls)
     addusdens    :      8.30s CPU      0.28s WALL (       9 calls)
     addusd:skk   :      0.02s CPU      0.00s WALL (      18 calls)
     addusd:dgemm :      1.00s CPU      0.04s WALL (      18 calls)
     addusd:qvan2 :      7.08s CPU      0.23s WALL (      18 calls)

     Called by *egterg:
     rdiaghg      :      0.65s CPU      0.02s WALL (      35 calls)
     regterg:over :      0.05s CPU      0.00s WALL (      26 calls)
     regterg:upda :      0.10s CPU      0.00s WALL (      26 calls)
     regterg:last :      0.17s CPU      0.01s WALL (      21 calls)
     h_psi        :     24.30s CPU      0.78s WALL (      36 calls)
     s_psi        :      0.04s CPU      0.00s WALL (      36 calls)
     g_psi        :      0.03s CPU      0.00s WALL (      26 calls)

     Called by h_psi:
     h_psi:calbec :      0.13s CPU      0.00s WALL (      36 calls)
     vloc_psi     :     23.93s CPU      0.76s WALL (      36 calls)
     add_vuspsi   :      0.07s CPU      0.00s WALL (      36 calls)

     General routines
     calbec       :      0.11s CPU      0.00s WALL (      50 calls)
     fft          :     20.63s CPU      0.69s WALL (     128 calls)
     ffts         :     10.59s CPU      0.35s WALL (      19 calls)
     fftw         :     24.75s CPU      0.79s WALL (     588 calls)
     interpolate  :     10.79s CPU      0.35s WALL (      10 calls)
 
     Parallel routines

     PAW routines
     PAW_pot      :     19.13s CPU      0.64s WALL (      10 calls)
     PAW_symme    :      0.07s CPU      0.00s WALL (      19 calls)
 
     PWSCF        :   2m10.16s CPU      4.83s WALL

 
   This run was terminated on:  21: 6:26  20May2023            

=------------------------------------------------------------------------------=
   JOB DONE.
=------------------------------------------------------------------------------=
