
     Program PWSCF v.7.0 starts on 21May2023 at  7:51:47 

     This program is part of the open-source Quantum ESPRESSO suite
     for quantum simulation of materials; please cite
         "P. Giannozzi et al., J. Phys.:Condens. Matter 21 395502 (2009);
         "P. Giannozzi et al., J. Phys.:Condens. Matter 29 465901 (2017);
         "P. Giannozzi et al., J. Chem. Phys. 152 154105 (2020);
          URL http://www.quantum-espresso.org", 
     in publications or presentations arising from this work. More details at
     http://www.quantum-espresso.org/quote

     Parallel version (MPI & OpenMP), running on      32 processor cores
     Number of MPI processes:                 1
     Threads/MPI process:                    32

     MPI processes distributed on     1 nodes
     42893 MiB available memory on the printing compute node when the environment starts
 
     Reading input from espresso_16946.pwi
Warning: card &CELL ignored
Warning: card / ignored

     Current dimensions of program PWSCF are:
     Max number of different atomic species (ntypx) = 10
     Max number of k-points (npk) =  40000
     Max angular momentum in pseudopotentials (lmaxx) =  4
     file O.pbe-n-kjpaw_psl.0.1.UPF: wavefunction(s)  2P renormalized

     gamma-point specific algorithms are used
     Message from routine setup:
     using ibrav=0 with symmetry is DISCOURAGED, use correct ibrav instead

     Subspace diagonalization in iterative solution of the eigenvalue problem:
     a serial algorithm will be used

 
     G-vector sticks info
     --------------------
     sticks:   dense  smooth     PW     G-vecs:    dense   smooth      PW
     Sum        1815     917    227               105133    37197    4625
 
     Using Slab Decomposition
 


     bravais-lattice index     =            0
     lattice parameter (alat)  =      10.4640  a.u.
     unit-cell volume          =    1673.6905 (a.u.)^3
     number of atoms/cell      =           20
     number of atomic types    =            3
     number of electrons       =       168.00
     number of Kohn-Sham states=          101
     kinetic-energy cutoff     =      30.0000  Ry
     charge density cutoff     =     240.0000  Ry
     scf convergence threshold =      1.0E-06
     mixing beta               =       0.7000
     number of iterations used =            8  plain     mixing
     Exchange-correlation= SLA  PW   PBX  PBC
                           (   1   4   3   4   0   0   0)

     celldm(1)=  10.464002  celldm(2)=   0.000000  celldm(3)=   0.000000
     celldm(4)=   0.000000  celldm(5)=   0.000000  celldm(6)=   0.000000

     crystal axes: (cart. coord. in units of alat)
               a(1) = (   1.000000   0.000000   0.000000 )  
               a(2) = (  -0.490617   0.871375   0.000000 )  
               a(3) = (   0.000000   0.000000   1.676396 )  

     reciprocal axes: (cart. coord. in units 2 pi/alat)
               b(1) = (  1.000000  0.563038  0.000000 )  
               b(2) = (  0.000000  1.147611  0.000000 )  
               b(3) = (  0.000000  0.000000  0.596518 )  


     PseudoPot. # 1 for Sr read from file:
     /home/pragov/projects/rrg-bengioy-ad/pragov/crystal_structure_design/SSSP/Sr_pbe_v1.uspp.F.UPF
     MD5 check sum: 6b418c05fbe9db5448babca5e47b7a5b
     Pseudo is Ultrasoft + core correction, Zval = 10.0
     Generated by new atomic code, or converted to UPF format
     Using radial grid of  883 points,  6 beta functions with: 
                l(1) =   0
                l(2) =   0
                l(3) =   1
                l(4) =   1
                l(5) =   2
                l(6) =   2
     Q(r) pseudized with  6 coefficients,  rinner =    1.400   1.400   1.400
                                                       1.400   1.400

     PseudoPot. # 2 for Cr read from file:
     /home/pragov/projects/rrg-bengioy-ad/pragov/crystal_structure_design/SSSP/cr_pbe_v1.5.uspp.F.UPF
     MD5 check sum: 0d52af634a40206e4dee301ad30da4bf
     Pseudo is Ultrasoft + core correction, Zval = 14.0
     Generated by new atomic code, or converted to UPF format
     Using radial grid of  857 points,  6 beta functions with: 
                l(1) =   0
                l(2) =   0
                l(3) =   1
                l(4) =   1
                l(5) =   2
                l(6) =   2
     Q(r) pseudized with  8 coefficients,  rinner =    0.950   0.950   0.950
                                                       0.950   0.950

     PseudoPot. # 3 for O  read from file:
     /home/pragov/projects/rrg-bengioy-ad/pragov/crystal_structure_design/SSSP/O.pbe-n-kjpaw_psl.0.1.UPF
     MD5 check sum: 0234752ac141de4415c5fc33072bef88
     Pseudo is Projector augmented-wave + core cor, Zval =  6.0
     Generated using "atomic" code by A. Dal Corso  v.5.0.99 svn rev. 10869
     Shape of augmentation charge: BESSEL
     Using radial grid of 1095 points,  4 beta functions with: 
                l(1) =   0
                l(2) =   0
                l(3) =   1
                l(4) =   1
     Q(r) pseudized with 0 coefficients 


     atomic species   valence    mass     pseudopotential
        Sr            10.00    87.62000     Sr( 1.00)
        Cr            14.00    51.99610     Cr( 1.00)
        O              6.00    15.99900     O ( 1.00)

      2 Sym. Ops. (no inversion) found ( 1 have fractional translation)


                                    s                        frac. trans.

      isym =  1     identity                                     

 cryst.   s( 1) = (     1          0          0      )
                  (     0          1          0      )
                  (     0          0          1      )

 cart.    s( 1) = (  1.0000000 -0.0000000  0.0000000 )
                  (  0.0000000  1.0000000  0.0000000 )
                  (  0.0000000  0.0000000  1.0000000 )


      isym =  2     inv. 180 deg rotation - cart. axis [0,0,1]   

 cryst.   s( 2) = (     1          0          0      )    f =(  0.0000000 )
                  (     0          1          0      )       (  0.0000000 )
                  (     0          0         -1      )       (  0.5000000 )

 cart.    s( 2) = (  1.0000000 -0.0000000  0.0000000 )    f =(  0.0000000 )
                  (  0.0000000  1.0000000  0.0000000 )       (  0.0000000 )
                  (  0.0000000  0.0000000 -1.0000000 )       (  0.8381979 )


   Cartesian axes

     site n.     atom                  positions (alat units)
         1           Sr  tau(   1) = (   0.5064377   0.2889009   0.4190990  )
         2           Sr  tau(   2) = (   0.5093810   0.8713725   0.8381979  )
         3           Sr  tau(   3) = (   0.5093810   0.8713725   0.0000000  )
         4           Sr  tau(   4) = (   0.0032739   0.5830371   1.2572969  )
         5           Cr  tau(   5) = (   0.4968100   0.2876679   1.4881483  )
         6           Cr  tau(   6) = (   0.4968100   0.2876679   1.0264455  )
         7           Cr  tau(   7) = (   0.0069230   0.5740427   0.6499504  )
         8           Cr  tau(   8) = (   0.0069230   0.5740427   0.1882475  )
         9           O   tau(   9) = (   0.5043041   0.0068359   0.8420754  )
        10           O   tau(  10) = (   0.5043041   0.0068359   1.6725184  )
        11           O   tau(  11) = (   0.2627144   0.1562497   1.2572969  )
        12           O   tau(  12) = (   0.7290682   0.1606441   1.2572969  )
        13           O   tau(  13) = (   0.5043331   0.5557526   1.2572969  )
        14           O   tau(  14) = (  -0.2414637   0.4427919   0.8343204  )
        15           O   tau(  15) = (  -0.2414637   0.4427919   0.0038775  )
        16           O   tau(  16) = (   0.0072599   0.3055817   0.4190990  )
        17           O   tau(  17) = (   0.2584347   0.4420913   0.8381979  )
        18           O   tau(  18) = (   0.2584347   0.4420913   0.0000000  )
        19           O   tau(  19) = (  -0.2177123   0.7141067   0.4190990  )
        20           O   tau(  20) = (   0.2368343   0.7121252   0.4190990  )

   Crystallographic axes

     site n.     atom                  positions (cryst. coord.)
         1           Sr  tau(   1) = (  0.6691000  0.3315460  0.2500000  )
         2           Sr  tau(   2) = (  0.9999970  0.9999970  0.5000000  )
         3           Sr  tau(   3) = (  0.9999970  0.9999970  0.0000000  )
         4           Sr  tau(   4) = (  0.3315460  0.6691000  0.7500000  )
         5           Cr  tau(   5) = (  0.6587780  0.3301310  0.8877070  )
         6           Cr  tau(   6) = (  0.6587780  0.3301310  0.6122930  )
         7           Cr  tau(   7) = (  0.3301310  0.6587780  0.3877070  )
         8           Cr  tau(   8) = (  0.3301310  0.6587780  0.1122930  )
         9           O   tau(   9) = (  0.5081530  0.0078450  0.5023130  )
        10           O   tau(  10) = (  0.5081530  0.0078450  0.9976870  )
        11           O   tau(  11) = (  0.3506890  0.1793140  0.7500000  )
        12           O   tau(  12) = (  0.8195170  0.1843570  0.7500000  )
        13           O   tau(  13) = (  0.8172430  0.6377880  0.7500000  )
        14           O   tau(  14) = (  0.0078450  0.5081530  0.4976870  )
        15           O   tau(  15) = (  0.0078450  0.5081530  0.0023130  )
        16           O   tau(  16) = (  0.1793140  0.3506890  0.2500000  )
        17           O   tau(  17) = (  0.5073490  0.5073490  0.5000000  )
        18           O   tau(  18) = (  0.5073490  0.5073490  0.0000000  )
        19           O   tau(  19) = (  0.1843570  0.8195170  0.2500000  )
        20           O   tau(  20) = (  0.6377880  0.8172430  0.2500000  )

     number of k points=     1  Methfessel-Paxton smearing, width (Ry)=  0.0010
                       cart. coord. in units 2pi/alat
        k(    1) = (   0.0000000   0.0000000   0.0000000), wk =   2.0000000

                       cryst. coord.
        k(    1) = (   0.0000000   0.0000000   0.0000000), wk =   2.0000000

     Dense  grid:    52567 G-vectors     FFT dimensions: (  54,  54,  90)

     Smooth grid:    18599 G-vectors     FFT dimensions: (  40,  40,  64)

     Dynamical RAM for                 wfc:       3.58 MB

     Dynamical RAM for     wfc (w. buffer):       3.58 MB

     Dynamical RAM for           str. fact:       2.41 MB

     Dynamical RAM for           local pot:       0.00 MB

     Dynamical RAM for          nlocal pot:       8.50 MB

     Dynamical RAM for                qrad:       3.73 MB

     Dynamical RAM for          rho,v,vnew:       8.41 MB

     Dynamical RAM for               rhoin:       2.80 MB

     Dynamical RAM for            rho*nmix:      12.83 MB

     Dynamical RAM for           G-vectors:       3.15 MB

     Dynamical RAM for          h,s,v(r/c):       0.93 MB

     Dynamical RAM for          <psi|beta>:       0.18 MB

     Dynamical RAM for                 psi:       7.16 MB

     Dynamical RAM for                hpsi:       7.16 MB

     Dynamical RAM for                spsi:       7.16 MB

     Dynamical RAM for      wfcinit/wfcrot:      10.37 MB

     Dynamical RAM for           addusdens:     158.82 MB

     Dynamical RAM for          addusforce:     176.91 MB

     Dynamical RAM for         addusstress:     161.22 MB

     Estimated static dynamical RAM per process >      45.81 MB

     Estimated max dynamical RAM per process >     235.55 MB

     Check: negative core charge=   -0.000016

     Initial potential from superposition of free atoms

     starting charge     163.8653, renormalised to     168.0000

     negative rho (up, down):  2.697E-01 0.000E+00
     Starting wfcs are  140 randomized atomic wfcs
     Checking if some PAW data can be deallocated... 

     total cpu time spent up to now is        7.0 secs

     Self-consistent Calculation

     iteration #  1     ecut=    30.00 Ry     beta= 0.70
     Davidson diagonalization with overlap

---- Real-time Memory Report at c_bands before calling an iterative solver
           507 MiB given to the printing process from OS
             0 MiB allocation reported by mallinfo(arena+hblkhd)
         42681 MiB available memory on the node where the printing process lives
------------------
     ethr =  1.00E-02,  avg # of iterations =  2.0

     negative rho (up, down):  2.709E-01 0.000E+00

     total cpu time spent up to now is        8.7 secs

     total energy              =   -1479.34730358 Ry
     estimated scf accuracy    <       6.33688717 Ry

     iteration #  2     ecut=    30.00 Ry     beta= 0.70
     Davidson diagonalization with overlap

---- Real-time Memory Report at c_bands before calling an iterative solver
           555 MiB given to the printing process from OS
             0 MiB allocation reported by mallinfo(arena+hblkhd)
         42656 MiB available memory on the node where the printing process lives
------------------
     ethr =  3.77E-03,  avg # of iterations =  3.0

     negative rho (up, down):  2.672E-01 0.000E+00

     total cpu time spent up to now is       10.7 secs

     total energy              =   -1470.38324749 Ry
     estimated scf accuracy    <     130.83411878 Ry

     iteration #  3     ecut=    30.00 Ry     beta= 0.70
     Davidson diagonalization with overlap

---- Real-time Memory Report at c_bands before calling an iterative solver
           593 MiB given to the printing process from OS
             0 MiB allocation reported by mallinfo(arena+hblkhd)
         42618 MiB available memory on the node where the printing process lives
------------------
     ethr =  3.77E-03,  avg # of iterations =  6.0

     negative rho (up, down):  2.736E-01 0.000E+00

     total cpu time spent up to now is       12.4 secs

     total energy              =   -1482.80290105 Ry
     estimated scf accuracy    <       2.91429035 Ry

     iteration #  4     ecut=    30.00 Ry     beta= 0.70
     Davidson diagonalization with overlap

---- Real-time Memory Report at c_bands before calling an iterative solver
           594 MiB given to the printing process from OS
             0 MiB allocation reported by mallinfo(arena+hblkhd)
         42618 MiB available memory on the node where the printing process lives
------------------
     ethr =  1.73E-03,  avg # of iterations =  6.0

     negative rho (up, down):  2.746E-01 0.000E+00

     total cpu time spent up to now is       13.9 secs

     total energy              =   -1482.87145148 Ry
     estimated scf accuracy    <       1.35929289 Ry

     iteration #  5     ecut=    30.00 Ry     beta= 0.70
     Davidson diagonalization with overlap

---- Real-time Memory Report at c_bands before calling an iterative solver
           597 MiB given to the printing process from OS
             0 MiB allocation reported by mallinfo(arena+hblkhd)
         42612 MiB available memory on the node where the printing process lives
------------------
     ethr =  8.09E-04,  avg # of iterations =  6.0

     negative rho (up, down):  2.775E-01 0.000E+00

     total cpu time spent up to now is       15.4 secs

     total energy              =   -1482.69199084 Ry
     estimated scf accuracy    <       9.40552592 Ry

     iteration #  6     ecut=    30.00 Ry     beta= 0.70
     Davidson diagonalization with overlap

---- Real-time Memory Report at c_bands before calling an iterative solver
           597 MiB given to the printing process from OS
             0 MiB allocation reported by mallinfo(arena+hblkhd)
         42619 MiB available memory on the node where the printing process lives
------------------
     ethr =  8.09E-04,  avg # of iterations =  1.0

     negative rho (up, down):  2.786E-01 0.000E+00

     total cpu time spent up to now is       17.1 secs

     total energy              =   -1482.89806954 Ry
     estimated scf accuracy    <       0.41534164 Ry

     iteration #  7     ecut=    30.00 Ry     beta= 0.70
     Davidson diagonalization with overlap

---- Real-time Memory Report at c_bands before calling an iterative solver
           597 MiB given to the printing process from OS
             0 MiB allocation reported by mallinfo(arena+hblkhd)
         42620 MiB available memory on the node where the printing process lives
------------------
     ethr =  2.47E-04,  avg # of iterations =  5.0

     negative rho (up, down):  2.792E-01 0.000E+00

     total cpu time spent up to now is       18.5 secs

     total energy              =   -1482.85088641 Ry
     estimated scf accuracy    <       2.88958056 Ry

     iteration #  8     ecut=    30.00 Ry     beta= 0.70
     Davidson diagonalization with overlap

---- Real-time Memory Report at c_bands before calling an iterative solver
           598 MiB given to the printing process from OS
             0 MiB allocation reported by mallinfo(arena+hblkhd)
         42618 MiB available memory on the node where the printing process lives
------------------
     ethr =  2.47E-04,  avg # of iterations =  1.0

     negative rho (up, down):  2.793E-01 0.000E+00

     total cpu time spent up to now is       19.4 secs

     total energy              =   -1482.92744801 Ry
     estimated scf accuracy    <       0.28912518 Ry

     iteration #  9     ecut=    30.00 Ry     beta= 0.70
     Davidson diagonalization with overlap

---- Real-time Memory Report at c_bands before calling an iterative solver
           600 MiB given to the printing process from OS
             0 MiB allocation reported by mallinfo(arena+hblkhd)
         42620 MiB available memory on the node where the printing process lives
------------------
     ethr =  1.72E-04,  avg # of iterations =  1.0

     negative rho (up, down):  2.795E-01 0.000E+00

     total cpu time spent up to now is       20.2 secs

     total energy              =   -1482.93065096 Ry
     estimated scf accuracy    <       0.37860537 Ry

     iteration # 10     ecut=    30.00 Ry     beta= 0.70
     Davidson diagonalization with overlap

---- Real-time Memory Report at c_bands before calling an iterative solver
           600 MiB given to the printing process from OS
             0 MiB allocation reported by mallinfo(arena+hblkhd)
         42623 MiB available memory on the node where the printing process lives
------------------
     ethr =  1.72E-04,  avg # of iterations =  1.0

     negative rho (up, down):  2.790E-01 0.000E+00

     total cpu time spent up to now is       21.1 secs

     total energy              =   -1482.93914043 Ry
     estimated scf accuracy    <       0.04400485 Ry

     iteration # 11     ecut=    30.00 Ry     beta= 0.70
     Davidson diagonalization with overlap

---- Real-time Memory Report at c_bands before calling an iterative solver
           601 MiB given to the printing process from OS
             0 MiB allocation reported by mallinfo(arena+hblkhd)
         42626 MiB available memory on the node where the printing process lives
------------------
     ethr =  2.62E-05,  avg # of iterations = 16.0

     negative rho (up, down):  2.797E-01 0.000E+00

     total cpu time spent up to now is       22.1 secs

     total energy              =   -1482.93755146 Ry
     estimated scf accuracy    <       0.04875913 Ry

     iteration # 12     ecut=    30.00 Ry     beta= 0.70
     Davidson diagonalization with overlap

---- Real-time Memory Report at c_bands before calling an iterative solver
           601 MiB given to the printing process from OS
             0 MiB allocation reported by mallinfo(arena+hblkhd)
         42627 MiB available memory on the node where the printing process lives
------------------
     ethr =  2.62E-05,  avg # of iterations =  1.0

     negative rho (up, down):  2.798E-01 0.000E+00

     total cpu time spent up to now is       23.0 secs

     total energy              =   -1482.94010713 Ry
     estimated scf accuracy    <       0.03166003 Ry

     iteration # 13     ecut=    30.00 Ry     beta= 0.70
     Davidson diagonalization with overlap

---- Real-time Memory Report at c_bands before calling an iterative solver
           601 MiB given to the printing process from OS
             0 MiB allocation reported by mallinfo(arena+hblkhd)
         42616 MiB available memory on the node where the printing process lives
------------------
     ethr =  1.88E-05,  avg # of iterations =  1.0

     negative rho (up, down):  2.798E-01 0.000E+00

     total cpu time spent up to now is       23.8 secs

     total energy              =   -1482.94104405 Ry
     estimated scf accuracy    <       0.01109058 Ry

     iteration # 14     ecut=    30.00 Ry     beta= 0.70
     Davidson diagonalization with overlap

---- Real-time Memory Report at c_bands before calling an iterative solver
           601 MiB given to the printing process from OS
             0 MiB allocation reported by mallinfo(arena+hblkhd)
         42614 MiB available memory on the node where the printing process lives
------------------
     ethr =  6.60E-06,  avg # of iterations =  2.0

     negative rho (up, down):  2.798E-01 0.000E+00

     total cpu time spent up to now is       24.7 secs

     total energy              =   -1482.94133776 Ry
     estimated scf accuracy    <       0.00333345 Ry

     iteration # 15     ecut=    30.00 Ry     beta= 0.70
     Davidson diagonalization with overlap

---- Real-time Memory Report at c_bands before calling an iterative solver
           602 MiB given to the printing process from OS
             0 MiB allocation reported by mallinfo(arena+hblkhd)
         42613 MiB available memory on the node where the printing process lives
------------------
     ethr =  1.98E-06,  avg # of iterations =  2.0

     negative rho (up, down):  2.798E-01 0.000E+00

     total cpu time spent up to now is       25.6 secs

     total energy              =   -1482.94140523 Ry
     estimated scf accuracy    <       0.00742212 Ry

     iteration # 16     ecut=    30.00 Ry     beta= 0.70
     Davidson diagonalization with overlap

---- Real-time Memory Report at c_bands before calling an iterative solver
           602 MiB given to the printing process from OS
             0 MiB allocation reported by mallinfo(arena+hblkhd)
         42612 MiB available memory on the node where the printing process lives
------------------
     ethr =  1.98E-06,  avg # of iterations =  1.0

     negative rho (up, down):  2.799E-01 0.000E+00

     total cpu time spent up to now is       26.4 secs

     total energy              =   -1482.94164511 Ry
     estimated scf accuracy    <       0.00023459 Ry

     iteration # 17     ecut=    30.00 Ry     beta= 0.70
     Davidson diagonalization with overlap

---- Real-time Memory Report at c_bands before calling an iterative solver
           602 MiB given to the printing process from OS
             0 MiB allocation reported by mallinfo(arena+hblkhd)
         42625 MiB available memory on the node where the printing process lives
------------------
     ethr =  1.40E-07,  avg # of iterations =  2.0

     negative rho (up, down):  2.799E-01 0.000E+00

     total cpu time spent up to now is       27.3 secs

     total energy              =   -1482.94164719 Ry
     estimated scf accuracy    <       0.00012366 Ry

     iteration # 18     ecut=    30.00 Ry     beta= 0.70
     Davidson diagonalization with overlap

---- Real-time Memory Report at c_bands before calling an iterative solver
           602 MiB given to the printing process from OS
             0 MiB allocation reported by mallinfo(arena+hblkhd)
         42624 MiB available memory on the node where the printing process lives
------------------
     ethr =  7.36E-08,  avg # of iterations =  2.0

     negative rho (up, down):  2.798E-01 0.000E+00

     total cpu time spent up to now is       28.2 secs

     total energy              =   -1482.94158375 Ry
     estimated scf accuracy    <       0.00272682 Ry

     iteration # 19     ecut=    30.00 Ry     beta= 0.70
     Davidson diagonalization with overlap

---- Real-time Memory Report at c_bands before calling an iterative solver
           602 MiB given to the printing process from OS
             0 MiB allocation reported by mallinfo(arena+hblkhd)
         42628 MiB available memory on the node where the printing process lives
------------------
     ethr =  7.36E-08,  avg # of iterations =  1.0

     negative rho (up, down):  2.798E-01 0.000E+00

     total cpu time spent up to now is       29.0 secs

     total energy              =   -1482.94162209 Ry
     estimated scf accuracy    <       0.00176354 Ry

     iteration # 20     ecut=    30.00 Ry     beta= 0.70
     Davidson diagonalization with overlap

---- Real-time Memory Report at c_bands before calling an iterative solver
           602 MiB given to the printing process from OS
             0 MiB allocation reported by mallinfo(arena+hblkhd)
         42627 MiB available memory on the node where the printing process lives
------------------
     ethr =  7.36E-08,  avg # of iterations =  1.0

     negative rho (up, down):  2.798E-01 0.000E+00

     total cpu time spent up to now is       29.9 secs

     total energy              =   -1482.94166145 Ry
     estimated scf accuracy    <       0.00005469 Ry

     iteration # 21     ecut=    30.00 Ry     beta= 0.70
     Davidson diagonalization with overlap

---- Real-time Memory Report at c_bands before calling an iterative solver
           602 MiB given to the printing process from OS
             0 MiB allocation reported by mallinfo(arena+hblkhd)
         42626 MiB available memory on the node where the printing process lives
------------------
     ethr =  3.26E-08,  avg # of iterations =  1.0

     negative rho (up, down):  2.798E-01 0.000E+00

     total cpu time spent up to now is       30.7 secs

     total energy              =   -1482.94166378 Ry
     estimated scf accuracy    <       0.00001957 Ry

     iteration # 22     ecut=    30.00 Ry     beta= 0.70
     Davidson diagonalization with overlap

---- Real-time Memory Report at c_bands before calling an iterative solver
           602 MiB given to the printing process from OS
             0 MiB allocation reported by mallinfo(arena+hblkhd)
         42626 MiB available memory on the node where the printing process lives
------------------
     ethr =  1.16E-08,  avg # of iterations =  1.0

     negative rho (up, down):  2.798E-01 0.000E+00

     total cpu time spent up to now is       31.6 secs

     total energy              =   -1482.94166448 Ry
     estimated scf accuracy    <       0.00002606 Ry

     iteration # 23     ecut=    30.00 Ry     beta= 0.70
     Davidson diagonalization with overlap

---- Real-time Memory Report at c_bands before calling an iterative solver
           602 MiB given to the printing process from OS
             0 MiB allocation reported by mallinfo(arena+hblkhd)
         42627 MiB available memory on the node where the printing process lives
------------------
     ethr =  1.16E-08,  avg # of iterations =  1.0

     negative rho (up, down):  2.798E-01 0.000E+00

     total cpu time spent up to now is       32.4 secs

     total energy              =   -1482.94166517 Ry
     estimated scf accuracy    <       0.00000308 Ry

     iteration # 24     ecut=    30.00 Ry     beta= 0.70
     Davidson diagonalization with overlap

---- Real-time Memory Report at c_bands before calling an iterative solver
           602 MiB given to the printing process from OS
             0 MiB allocation reported by mallinfo(arena+hblkhd)
         42626 MiB available memory on the node where the printing process lives
------------------
     ethr =  1.83E-09,  avg # of iterations =  2.0

     negative rho (up, down):  2.798E-01 0.000E+00

     total cpu time spent up to now is       33.3 secs

     total energy              =   -1482.94166442 Ry
     estimated scf accuracy    <       0.00003380 Ry

     iteration # 25     ecut=    30.00 Ry     beta= 0.70
     Davidson diagonalization with overlap

---- Real-time Memory Report at c_bands before calling an iterative solver
           602 MiB given to the printing process from OS
             0 MiB allocation reported by mallinfo(arena+hblkhd)
         42619 MiB available memory on the node where the printing process lives
------------------
     ethr =  1.83E-09,  avg # of iterations =  2.0

     negative rho (up, down):  2.798E-01 0.000E+00

     total cpu time spent up to now is       34.1 secs

     End of self-consistent calculation

          k = 0.0000 0.0000 0.0000 (  2313 PWs)   bands (ev):

   -61.9556 -61.9553 -61.9246 -61.9241 -33.5248 -33.5193 -33.2806 -33.2762
   -33.2432 -33.2423 -33.2016 -33.1994 -33.1562 -33.1526 -33.1189 -33.1165
   -24.1706 -24.1667 -23.8682 -23.8678  -8.2974  -8.1149  -7.7639  -7.3809
    -7.2672  -7.2648  -7.1504  -7.0519  -6.9125  -6.9042  -6.7520  -6.7158
    -6.2476  -6.2401  -6.1887  -6.1277  -6.1196  -5.9361  -5.9196  -5.8517
    -5.8508  -5.7846  -5.7527  -5.5638   4.5109   4.6252   5.1310   5.2560
     5.3366   5.3876   5.5395   5.6511   5.6531   5.7346   5.8514   5.9247
     5.9613   6.1203   6.3100   6.3419   6.5752   6.5760   6.7100   6.9543
     7.0091   7.3144   7.4178   8.2689   8.3869   8.5823   8.6336   8.6466
     8.6566   8.9739   9.0172   9.0740   9.2971   9.4037   9.5198   9.6467
     9.9198  10.2743  10.2840  10.8733  10.8738  10.9863  11.3028  11.6934
    11.7299  11.9128  11.9729  12.0937  12.6044  12.7489  13.0030  13.1131
    14.6910  14.7569  14.8423  14.8461  14.9782

     occupation numbers 
     1.0000   1.0000   1.0000   1.0000   1.0000   1.0000   1.0000   1.0000
     1.0000   1.0000   1.0000   1.0000   1.0000   1.0000   1.0000   1.0000
     1.0000   1.0000   1.0000   1.0000   1.0000   1.0000   1.0000   1.0000
     1.0000   1.0000   1.0000   1.0000   1.0000   1.0000   1.0000   1.0000
     1.0000   1.0000   1.0000   1.0000   1.0000   1.0000   1.0000   1.0000
     1.0000   1.0000   1.0000   1.0000   1.0000   1.0000   1.0000   1.0000
     1.0000   1.0000   1.0000   1.0000   1.0000   1.0000   1.0000   1.0000
     1.0000   1.0000   1.0000   1.0000   1.0000   1.0000   1.0000   1.0000
     1.0000   1.0000   1.0000   1.0000   1.0000   1.0000   1.0000   1.0000
     1.0000   1.0000   1.0000   1.0000   1.0000   1.0000   1.0000   1.0000
     1.0000   1.0000   1.0000   0.5150   0.4850  -0.0000  -0.0000  -0.0000
    -0.0000  -0.0000  -0.0000  -0.0000  -0.0000  -0.0000  -0.0000  -0.0000
    -0.0000  -0.0000  -0.0000  -0.0000  -0.0000

     the Fermi energy is    10.8736 ev

!    total energy              =   -1482.94166568 Ry
     estimated scf accuracy    <       0.00000024 Ry
     smearing contrib. (-TS)   =      -0.00056366 Ry
     internal energy E=F+TS    =   -1482.94110203 Ry

     The total energy is F=E-TS. E is the sum of the following terms:
     one-electron contribution =    -619.09382071 Ry
     hartree contribution      =     399.05066267 Ry
     xc contribution           =    -252.09071237 Ry
     ewald contribution        =    -896.58615035 Ry
     one-center paw contrib.   =    -114.22108128 Ry
      -> PAW hartree energy AE =     355.63054917 Ry
      -> PAW hartree energy PS =    -354.34612097 Ry
      -> PAW xc energy AE      =    -206.02335525 Ry
      -> PAW xc energy PS      =      90.51784578 Ry
      -> total E_H with PAW    =     400.33509087 Ry
      -> total E_XC with PAW   =    -367.59622184 Ry

     convergence has been achieved in  25 iterations

     negative rho (up, down):  2.798E-01 0.000E+00

     Forces acting on atoms (cartesian axes, Ry/au):

     atom    1 type  1   force =     0.00157284    0.00128229    0.00000000
     atom    2 type  1   force =    -0.00454129   -0.00775034    0.00002274
     atom    3 type  1   force =    -0.00454129   -0.00775034   -0.00002274
     atom    4 type  1   force =     0.00034734    0.00199732    0.00000000
     atom    5 type  2   force =     0.02647051    0.02723535    0.01665568
     atom    6 type  2   force =     0.02647051    0.02723535   -0.01665568
     atom    7 type  2   force =     0.01078709    0.03641841    0.01661455
     atom    8 type  2   force =     0.01078709    0.03641841   -0.01661455
     atom    9 type  3   force =    -0.00857890   -0.01863175   -0.01039984
     atom   10 type  3   force =    -0.00857890   -0.01863175    0.01039984
     atom   11 type  3   force =     0.01812460    0.01017764    0.00000000
     atom   12 type  3   force =    -0.01128547   -0.00320249    0.00000000
     atom   13 type  3   force =    -0.00841300   -0.01423661    0.00000000
     atom   14 type  3   force =    -0.01205496   -0.01662396    0.01041283
     atom   15 type  3   force =    -0.01205496   -0.01662396   -0.01041283
     atom   16 type  3   force =    -0.00003743    0.02089343    0.00000000
     atom   17 type  3   force =    -0.00950901   -0.01623439   -0.00001198
     atom   18 type  3   force =    -0.00950901   -0.01623439    0.00001198
     atom   19 type  3   force =     0.00275800   -0.01145063    0.00000000
     atom   20 type  3   force =    -0.00821378   -0.01428760    0.00000000
     The non-local contrib.  to forces
     atom    1 type  1   force =    -0.00001539   -0.00118225    0.00000000
     atom    2 type  1   force =     0.00263041    0.00450154    0.00002150
     atom    3 type  1   force =     0.00263041    0.00450154   -0.00002150
     atom    4 type  1   force =    -0.00104494   -0.00062351    0.00000000
     atom    5 type  2   force =    -0.01230242   -0.01855532   -0.07150101
     atom    6 type  2   force =    -0.01230242   -0.01855532    0.07150101
     atom    7 type  2   force =    -0.01018516   -0.01995087   -0.07153492
     atom    8 type  2   force =    -0.01018516   -0.01995087    0.07153492
     atom    9 type  3   force =    -0.03571222    0.06695153    0.01587767
     atom   10 type  3   force =    -0.03571222    0.06695153   -0.01587767
     atom   11 type  3   force =     0.77242235    0.43301434    0.00000000
     atom   12 type  3   force =    -0.75438559    0.39781628    0.00000000
     atom   13 type  3   force =    -0.04125566   -0.81538799    0.00000000
     atom   14 type  3   force =     0.07585007    0.00177080   -0.01587080
     atom   15 type  3   force =     0.07585007    0.00177080    0.01587080
     atom   16 type  3   force =    -0.00159239    0.88561457    0.00000000
     atom   17 type  3   force =    -0.03211535   -0.05490399    0.00000876
     atom   18 type  3   force =    -0.03211535   -0.05490399   -0.00000876
     atom   19 type  3   force =     0.71685430   -0.46209520    0.00000000
     atom   20 type  3   force =    -0.69033613   -0.43593516    0.00000000
     The ionic contribution  to forces
     atom    1 type  1   force =     0.19063420   -0.26726186   -0.00000000
     atom    2 type  1   force =    -0.01097193   -0.01876913   -0.00000000
     atom    3 type  1   force =    -0.01097193   -0.01876913    0.00000000
     atom    4 type  1   force =    -0.32641379    0.03499055   -0.00000000
     atom    5 type  2   force =     0.58620396    0.37532606    8.23463936
     atom    6 type  2   force =     0.58620396    0.37532606   -8.23463936
     atom    7 type  2   force =     0.03944787    0.69494503    8.23463936
     atom    8 type  2   force =     0.03944787    0.69494503   -8.23463936
     atom    9 type  3   force =     0.30268133   -1.49102168   -1.22228960
     atom   10 type  3   force =     0.30268133   -1.49102168    1.22228960
     atom   11 type  3   force =   -12.97698758   -7.37688662   -0.00000000
     atom   12 type  3   force =    13.29941040   -7.37370363   -0.00000000
     atom   13 type  3   force =     0.39963030   15.00024547   -0.00000000
     atom   14 type  3   force =    -1.44773986   -0.46777231    1.22228960
     atom   15 type  3   force =    -1.44773986   -0.46777231   -1.22228960
     atom   16 type  3   force =    -0.06129838  -14.92705281    0.00000000
     atom   17 type  3   force =     0.30559613    0.52276792    0.00000000
     atom   18 type  3   force =     0.30559613    0.52276792   -0.00000000
     atom   19 type  3   force =   -12.95018446    7.97110688    0.00000000
     atom   20 type  3   force =    12.87477429    7.70761023    0.00000000
     The local contribution  to forces
     atom    1 type  1   force =    -0.18900730    0.26959137   -0.00011818
     atom    2 type  1   force =     0.00386865    0.00667018    0.00016995
     atom    3 type  1   force =     0.00387335    0.00668467   -0.00017672
     atom    4 type  1   force =     0.32763985   -0.03248489    0.00012009
     atom    5 type  2   force =    -0.54845376   -0.33213360   -8.15069644
     atom    6 type  2   force =    -0.54861077   -0.33209602    8.15091816
     atom    7 type  2   force =    -0.01999078   -0.64078071   -8.15047572
     atom    8 type  2   force =    -0.02013936   -0.64071013    8.15030099
     atom    9 type  3   force =    -0.27593019    1.40560433    1.19581940
     atom   10 type  3   force =    -0.27592971    1.40569572   -1.19588327
     atom   11 type  3   force =    12.23060536    6.95852240    0.00015861
     atom   12 type  3   force =   -12.56381071    6.97670024    0.00016927
     atom   13 type  3   force =    -0.36718747  -14.20725598    0.00015648
     atom   14 type  3   force =     1.36022529    0.44910866   -1.19563525
     atom   15 type  3   force =     1.36020136    0.44908604    1.19561796
     atom   16 type  3   force =     0.06281205   14.07147326   -0.00010559
     atom   17 type  3   force =    -0.28336828   -0.48467821    0.00005527
     atom   18 type  3   force =    -0.28332331   -0.48472392   -0.00010227
     atom   19 type  3   force =    12.24323963   -7.52510062   -0.00012333
     atom   20 type  3   force =   -12.19952255   -7.29032466   -0.00009180
     The core correction contribution to forces
     atom    1 type  1   force =     0.00001999    0.00014896   -0.00000006
     atom    2 type  1   force =    -0.00009588   -0.00016375    0.00000032
     atom    3 type  1   force =    -0.00009601   -0.00016379    0.00000035
     atom    4 type  1   force =     0.00012158    0.00009239    0.00000002
     atom    5 type  2   force =     0.00138239    0.00239238    0.00428152
     atom    6 type  2   force =     0.00138067    0.00239262   -0.00428379
     atom    7 type  2   force =     0.00141217    0.00238886    0.00428334
     atom    8 type  2   force =     0.00141095    0.00238968   -0.00428178
     atom    9 type  3   force =     0.00041048   -0.00020114    0.00026785
     atom   10 type  3   force =     0.00041060   -0.00020105   -0.00026786
     atom   11 type  3   force =    -0.00787566   -0.00444221   -0.00000002
     atom   12 type  3   force =     0.00748407   -0.00395424    0.00000005
     atom   13 type  3   force =     0.00044752    0.00808298   -0.00000002
     atom   14 type  3   force =    -0.00037677    0.00025832   -0.00026782
     atom   15 type  3   force =    -0.00037652    0.00025856    0.00026806
     atom   16 type  3   force =    -0.00000783   -0.00904297    0.00000011
     atom   17 type  3   force =     0.00035290    0.00060340   -0.00000016
     atom   18 type  3   force =     0.00035300    0.00060350    0.00000027
     atom   19 type  3   force =    -0.00711872    0.00457987   -0.00000015
     atom   20 type  3   force =     0.00682513    0.00435483    0.00000007
     The Hubbard contrib.    to forces
     atom    1 type  1   force =     0.00000000    0.00000000    0.00000000
     atom    2 type  1   force =     0.00000000    0.00000000    0.00000000
     atom    3 type  1   force =     0.00000000    0.00000000    0.00000000
     atom    4 type  1   force =     0.00000000    0.00000000    0.00000000
     atom    5 type  2   force =     0.00000000    0.00000000    0.00000000
     atom    6 type  2   force =     0.00000000    0.00000000    0.00000000
     atom    7 type  2   force =     0.00000000    0.00000000    0.00000000
     atom    8 type  2   force =     0.00000000    0.00000000    0.00000000
     atom    9 type  3   force =     0.00000000    0.00000000    0.00000000
     atom   10 type  3   force =     0.00000000    0.00000000    0.00000000
     atom   11 type  3   force =     0.00000000    0.00000000    0.00000000
     atom   12 type  3   force =     0.00000000    0.00000000    0.00000000
     atom   13 type  3   force =     0.00000000    0.00000000    0.00000000
     atom   14 type  3   force =     0.00000000    0.00000000    0.00000000
     atom   15 type  3   force =     0.00000000    0.00000000    0.00000000
     atom   16 type  3   force =     0.00000000    0.00000000    0.00000000
     atom   17 type  3   force =     0.00000000    0.00000000    0.00000000
     atom   18 type  3   force =     0.00000000    0.00000000    0.00000000
     atom   19 type  3   force =     0.00000000    0.00000000    0.00000000
     atom   20 type  3   force =     0.00000000    0.00000000    0.00000000
     The SCF correction term to forces
     atom    1 type  1   force =    -0.00005818   -0.00001203    0.00010800
     atom    2 type  1   force =     0.00002780    0.00001395   -0.00016298
     atom    3 type  1   force =     0.00002354   -0.00000296    0.00018117
     atom    4 type  1   force =     0.00004513    0.00002468   -0.00011257
     atom    5 type  2   force =    -0.00035494    0.00021128   -0.00004762
     atom    6 type  2   force =    -0.00020468    0.00016637   -0.00013160
     atom    7 type  2   force =     0.00009767   -0.00018923   -0.00031956
     atom    8 type  2   force =     0.00025909   -0.00024619    0.00044862
     atom    9 type  3   force =    -0.00002979    0.00003813   -0.00007514
     atom   10 type  3   force =    -0.00002640   -0.00005538    0.00013906
     atom   11 type  3   force =    -0.00003937   -0.00002837   -0.00016134
     atom   12 type  3   force =     0.00001686   -0.00005925   -0.00016678
     atom   13 type  3   force =    -0.00004720    0.00008082   -0.00015980
     atom   14 type  3   force =    -0.00001916    0.00000615   -0.00009718
     atom   15 type  3   force =     0.00001645    0.00004117    0.00012567
     atom   16 type  3   force =     0.00004960   -0.00009672    0.00011126
     atom   17 type  3   force =     0.00002520   -0.00002291   -0.00007188
     atom   18 type  3   force =    -0.00001809    0.00002530    0.00012672
     atom   19 type  3   force =    -0.00003226    0.00006034    0.00011820
     atom   20 type  3   force =     0.00004598    0.00000905    0.00009746

     Total force =     0.107530     Total SCF correction =     0.001029


     Computing stress (Cartesian axis) and pressure


     negative rho (up, down):  2.798E-01 0.000E+00
          total   stress  (Ry/bohr**3)                   (kbar)     P=     -405.10
  -0.00222446  -0.00009162   0.00000000         -327.23      -13.48        0.00
  -0.00009162  -0.00232823   0.00000000          -13.48     -342.49        0.00
   0.00000000   0.00000000  -0.00370871            0.00        0.00     -545.57

     kinetic stress (kbar)  26254.71    -27.76      0.00
                              -27.76  26223.59      0.00
                                0.00      0.00  25647.10

     local   stress (kbar)  -9037.78    500.19     -0.04
                              500.19  -8474.60      0.01
                               -0.04      0.01 -26260.54

     nonloc. stress (kbar)   9107.44     -3.08      0.00
                               -3.08   9104.03      0.00
                                0.00      0.00   9063.30

     hartree stress (kbar)   9174.98   -186.87      0.03
                             -186.87   8964.34     -0.01
                                0.03     -0.01  16934.30

     exc-cor stress (kbar)  -1503.90     -0.67      0.00
                               -0.67  -1504.65     -0.00
                                0.00     -0.00  -1500.05

     corecor stress (kbar)  -4869.58      0.23     -0.00
                                0.23  -4869.32      0.00
                               -0.00      0.00  -4865.33

     ewald   stress (kbar) -29453.10   -295.52      0.00
                             -295.52 -29785.88      0.00
                                0.00      0.00 -19564.34

     hubbard stress (kbar)      0.00      0.00      0.00
                                0.00      0.00      0.00
                                0.00      0.00      0.00

     DFT-D   stress (kbar)      0.00      0.00      0.00
                                0.00      0.00      0.00
                                0.00      0.00      0.00

     XDM     stress (kbar)      0.00      0.00      0.00
                                0.00      0.00      0.00
                                0.00      0.00      0.00

     dft-nl  stress (kbar)      0.00      0.00      0.00
                                0.00      0.00      0.00
                                0.00      0.00      0.00

     TS-vdW  stress (kbar)      0.00      0.00      0.00
                                0.00      0.00      0.00
                                0.00      0.00      0.00


                                0.00      0.00      0.00
                                0.00      0.00      0.00


                                0.00      0.00      0.00


     Writing all to output data dir new_calculations/myprefix.save/
 
     init_run     :    169.53s CPU      6.61s WALL (       1 calls)
     electrons    :    784.37s CPU     27.27s WALL (       1 calls)
     forces       :     12.43s CPU      0.42s WALL (       1 calls)
     stress       :     39.44s CPU      1.31s WALL (       1 calls)

     Called by init_run:
     wfcinit      :     54.42s CPU      1.89s WALL (       1 calls)
     wfcinit:atom :      0.12s CPU      0.01s WALL (       1 calls)
     wfcinit:wfcr :     53.89s CPU      1.87s WALL (       1 calls)
     potinit      :     37.67s CPU      1.36s WALL (       1 calls)
     hinit0       :     66.50s CPU      2.95s WALL (       1 calls)

     Called by electrons:
     c_bands      :    252.31s CPU      8.58s WALL (      25 calls)
     sum_band     :    160.56s CPU      6.00s WALL (      25 calls)
     v_of_rho     :     26.18s CPU      0.90s WALL (      26 calls)
     v_h          :      2.32s CPU      0.08s WALL (      26 calls)
     v_xc         :     25.26s CPU      0.87s WALL (      28 calls)
     newd         :    248.62s CPU      8.60s WALL (      26 calls)
     PAW_pot      :     95.07s CPU      3.17s WALL (      26 calls)
     mix_rho      :      8.12s CPU      0.27s WALL (      25 calls)

     Called by c_bands:
     init_us_2    :      0.96s CPU      0.04s WALL (      51 calls)
     init_us_2:cp :      0.87s CPU      0.03s WALL (      51 calls)
     regterg      :    248.68s CPU      8.46s WALL (      25 calls)

     Called by sum_band:
     sum_band:wei :      0.09s CPU      0.00s WALL (      25 calls)
     sum_band:loo :     43.94s CPU      1.48s WALL (      25 calls)
     sum_band:buf :      0.02s CPU      0.00s WALL (      25 calls)
     sum_band:ini :      0.49s CPU      0.02s WALL (      25 calls)
     sum_band:cal :      2.67s CPU      0.09s WALL (      25 calls)
     sum_band:bec :      0.41s CPU      0.01s WALL (      25 calls)
     addusdens    :    112.93s CPU      4.40s WALL (      25 calls)
     addusd:skk   :      1.57s CPU      0.09s WALL (      75 calls)
     addusd:dgemm :      7.77s CPU      0.79s WALL (      75 calls)
     addusd:qvan2 :     69.62s CPU      2.32s WALL (      75 calls)

     Called by *egterg:
     rdiaghg      :     26.20s CPU      0.91s WALL (      93 calls)
     regterg:over :      8.17s CPU      0.28s WALL (      68 calls)
     regterg:upda :      1.62s CPU      0.05s WALL (      68 calls)
     regterg:last :      3.35s CPU      0.12s WALL (      39 calls)
     h_psi        :    250.62s CPU      8.54s WALL (      94 calls)
     s_psi        :      0.83s CPU      0.03s WALL (      94 calls)
     g_psi        :      0.18s CPU      0.01s WALL (      68 calls)

     Called by h_psi:
     h_psi:calbec :      8.79s CPU      0.31s WALL (      94 calls)
     vloc_psi     :    239.69s CPU      8.16s WALL (      94 calls)
     add_vuspsi   :      1.20s CPU      0.04s WALL (      94 calls)

     General routines
     calbec       :     11.34s CPU      0.39s WALL (     124 calls)
     fft          :     53.99s CPU      1.92s WALL (     304 calls)
     ffts         :     31.29s CPU      1.13s WALL (      51 calls)
     fftw         :    203.64s CPU      6.93s WALL (    6897 calls)
     interpolate  :     33.48s CPU      1.21s WALL (      26 calls)
 
     Parallel routines

     PAW routines
     PAW_pot      :     95.07s CPU      3.17s WALL (      26 calls)
     PAW_symme    :      0.10s CPU      0.00s WALL (      51 calls)
 
     PWSCF        :  16m54.49s CPU   1m 7.30s WALL

 
   This run was terminated on:   7:52:55  21May2023            

=------------------------------------------------------------------------------=
   JOB DONE.
=------------------------------------------------------------------------------=
