
     Program PWSCF v.7.0 starts on 20May2023 at 17:34: 6 

     This program is part of the open-source Quantum ESPRESSO suite
     for quantum simulation of materials; please cite
         "P. Giannozzi et al., J. Phys.:Condens. Matter 21 395502 (2009);
         "P. Giannozzi et al., J. Phys.:Condens. Matter 29 465901 (2017);
         "P. Giannozzi et al., J. Chem. Phys. 152 154105 (2020);
          URL http://www.quantum-espresso.org", 
     in publications or presentations arising from this work. More details at
     http://www.quantum-espresso.org/quote

     Parallel version (MPI & OpenMP), running on      32 processor cores
     Number of MPI processes:                 1
     Threads/MPI process:                    32

     MPI processes distributed on     1 nodes
     159682 MiB available memory on the printing compute node when the environment starts
 
     Reading input from espresso_25003.pwi
Warning: card &CELL ignored
Warning: card / ignored

     Current dimensions of program PWSCF are:
     Max number of different atomic species (ntypx) = 10
     Max number of k-points (npk) =  40000
     Max angular momentum in pseudopotentials (lmaxx) =  4
     file Nb.pbe-spn-kjpaw_psl.0.3.0.UPF: wavefunction(s)  4S 4P renormalized
     file Fe.pbe-spn-kjpaw_psl.0.2.1.UPF: wavefunction(s)  3D renormalized
     file O.pbe-n-kjpaw_psl.0.1.UPF: wavefunction(s)  2P renormalized

     gamma-point specific algorithms are used

     Subspace diagonalization in iterative solution of the eigenvalue problem:
     a serial algorithm will be used

 
     G-vector sticks info
     --------------------
     sticks:   dense  smooth     PW     G-vecs:    dense   smooth      PW
     Sum        1877     939    231                86469    30563    3817
 
     Using Slab Decomposition
 


     bravais-lattice index     =            0
     lattice parameter (alat)  =       9.9410  a.u.
     unit-cell volume          =    1377.0137 (a.u.)^3
     number of atoms/cell      =           18
     number of atomic types    =            4
     number of electrons       =       143.00
     number of Kohn-Sham states=           86
     kinetic-energy cutoff     =      30.0000  Ry
     charge density cutoff     =     240.0000  Ry
     scf convergence threshold =      1.0E-06
     mixing beta               =       0.7000
     number of iterations used =            8  plain     mixing
     Exchange-correlation= SLA  PW   PBX  PBC
                           (   1   4   3   4   0   0   0)

     celldm(1)=   9.941031  celldm(2)=   0.000000  celldm(3)=   0.000000
     celldm(4)=   0.000000  celldm(5)=   0.000000  celldm(6)=   0.000000

     crystal axes: (cart. coord. in units of alat)
               a(1) = (   1.000000   0.000000   0.000000 )  
               a(2) = (  -0.207236   0.997549   0.000000 )  
               a(3) = (  -0.478805  -0.384109   1.405109 )  

     reciprocal axes: (cart. coord. in units 2 pi/alat)
               b(1) = (  1.000000  0.207746  0.397551 )  
               b(2) = (  0.000000  1.002457  0.274038 )  
               b(3) = (  0.000000  0.000000  0.711689 )  


     PseudoPot. # 1 for Li read from file:
     /home/pragov/projects/rrg-bengioy-ad/pragov/crystal_structure_design/SSSP/li_pbe_v1.4.uspp.F.UPF
     MD5 check sum: e912e257baa3777c20ea3d68f190483c
     Pseudo is Ultrasoft, Zval =  3.0
     Generated by new atomic code, or converted to UPF format
     Using radial grid of  751 points,  5 beta functions with: 
                l(1) =   0
                l(2) =   0
                l(3) =   0
                l(4) =   1
                l(5) =   1
     Q(r) pseudized with 10 coefficients,  rinner =    1.150   1.150   1.150


     PseudoPot. # 2 for Nb read from file:
     /home/pragov/projects/rrg-bengioy-ad/pragov/crystal_structure_design/SSSP/Nb.pbe-spn-kjpaw_psl.0.3.0.UPF
     MD5 check sum: 411d72ad547312f8017e2943ceca08cc
     Pseudo is Projector augmented-wave + core cor, Zval = 13.0
     Generated using "atomic" code by A. Dal Corso  v.5.0.99 svn rev. 10869
     Shape of augmentation charge: PSQ
     Using radial grid of 1227 points,  6 beta functions with: 
                l(1) =   0
                l(2) =   0
                l(3) =   1
                l(4) =   1
                l(5) =   2
                l(6) =   2
     Q(r) pseudized with 0 coefficients 


     PseudoPot. # 3 for Fe read from file:
     /home/pragov/projects/rrg-bengioy-ad/pragov/crystal_structure_design/SSSP/Fe.pbe-spn-kjpaw_psl.0.2.1.UPF
     MD5 check sum: e86618425769142926afa95317d90200
     Pseudo is Projector augmented-wave + core cor, Zval = 16.0
     Generated using "atomic" code by A. Dal Corso  v.5.0.99 svn rev. 10869
     Shape of augmentation charge: PSQ
     Using radial grid of 1191 points,  6 beta functions with: 
                l(1) =   0
                l(2) =   0
                l(3) =   1
                l(4) =   1
                l(5) =   2
                l(6) =   2
     Q(r) pseudized with 0 coefficients 


     PseudoPot. # 4 for O  read from file:
     /home/pragov/projects/rrg-bengioy-ad/pragov/crystal_structure_design/SSSP/O.pbe-n-kjpaw_psl.0.1.UPF
     MD5 check sum: 0234752ac141de4415c5fc33072bef88
     Pseudo is Projector augmented-wave + core cor, Zval =  6.0
     Generated using "atomic" code by A. Dal Corso  v.5.0.99 svn rev. 10869
     Shape of augmentation charge: BESSEL
     Using radial grid of 1095 points,  4 beta functions with: 
                l(1) =   0
                l(2) =   0
                l(3) =   1
                l(4) =   1
     Q(r) pseudized with 0 coefficients 


     atomic species   valence    mass     pseudopotential
        Li             3.00     6.94000     Li( 1.00)
        Nb            13.00    92.90637     Nb( 1.00)
        Fe            16.00    55.84500     Fe( 1.00)
        O              6.00    15.99900     O ( 1.00)

     No symmetry found


                                    s                        frac. trans.

      isym =  1     identity                                     

 cryst.   s( 1) = (     1          0          0      )
                  (     0          1          0      )
                  (     0          0          1      )

 cart.    s( 1) = (  1.0000000 -0.0000000 -0.0000000 )
                  (  0.0000000  1.0000000  0.0000000 )
                  (  0.0000000  0.0000000  1.0000000 )


   Cartesian axes

     site n.     atom                  positions (alat units)
         1           Li  tau(   1) = (   0.6101679   0.1573566   0.5856479  )
         2           Li  tau(   2) = (  -0.1175652   0.1047257   1.0723552  )
         3           Li  tau(   3) = (   0.4408999   0.5281388   0.3042693  )
         4           Nb  tau(   4) = (   0.3945382  -0.2100125   0.9670507  )
         5           Nb  tau(   5) = (  -0.0818152   0.7925173   0.4374033  )
         6           Fe  tau(   6) = (   0.5001444   0.0018702   0.0005410  )
         7           Fe  tau(   7) = (   0.3452304   0.3232342   1.2390235  )
         8           Fe  tau(   8) = (  -0.0078812   0.2756927   0.1467088  )
         9           O   tau(   9) = (   0.5211232   0.1357824   0.9493463  )
        10           O   tau(  10) = (   0.3282413   0.1247417   0.3183091  )
        11           O   tau(  11) = (   0.0527030  -0.0895467   0.7726806  )
        12           O   tau(  12) = (   0.1825752  -0.0498644   1.2951014  )
        13           O   tau(  13) = (   0.6298188   0.8988946   0.2221168  )
        14           O   tau(  14) = (  -0.3188639  -0.2891846   1.2096329  )
        15           O   tau(  15) = (   0.1324705   0.6591961   0.1036605  )
        16           O   tau(  16) = (   0.2673212   0.6909480   0.6286246  )
        17           O   tau(  17) = (   0.0045591   0.4770310   1.1072033  )
        18           O   tau(  18) = (  -0.2006865   0.4484546   0.4407686  )

   Crystallographic axes

     site n.     atom                  positions (cryst. coord.)
         1           Li  tau(   1) = (  0.8756830  0.3182330  0.4167990  )
         2           Li  tau(   2) = (  0.3305070  0.3988490  0.7631830  )
         3           Li  tau(   3) = (  0.6715810  0.6128180  0.2165450  )
         4           Nb  tau(   4) = (  0.7353610  0.0544800  0.6882390  )
         5           Nb  tau(   5) = (  0.2567170  0.9143300  0.3112950  )
         6           Fe  tau(   6) = (  0.5007480  0.0020230  0.0003850  )
         7           Fe  tau(   7) = (  0.9049560  0.6635680  0.8817990  )
         8           Fe  tau(   8) = (  0.1077170  0.3165740  0.1044110  )
         9           O   tau(   9) = (  0.9267450  0.3962730  0.6756390  )
        10           O   tau(  10) = (  0.4807000  0.2122770  0.2265370  )
        11           O   tau(  11) = (  0.3412800  0.1219770  0.5499080  )
        12           O   tau(  12) = (  0.6870850  0.3049200  0.9217090  )
        13           O   tau(  13) = (  0.9048630  0.9619720  0.1580780  )
        14           O   tau(  14) = (  0.1019500  0.0415900  0.8608820  )
        15           O   tau(  15) = (  0.3106260  0.6892230  0.0737740  )
        16           O   tau(  16) = (  0.6607730  0.8649130  0.4473850  )
        17           O   tau(  17) = (  0.5438300  0.7816190  0.7879840  )
        18           O   tau(  18) = (  0.0677060  0.5703440  0.3136900  )

     number of k points=     1  Methfessel-Paxton smearing, width (Ry)=  0.0010
                       cart. coord. in units 2pi/alat
        k(    1) = (   0.0000000   0.0000000   0.0000000), wk =   2.0000000

                       cryst. coord.
        k(    1) = (   0.0000000   0.0000000   0.0000000), wk =   2.0000000

     Dense  grid:    43235 G-vectors     FFT dimensions: (  50,  50,  75)

     Smooth grid:    15282 G-vectors     FFT dimensions: (  36,  36,  54)

     Dynamical RAM for                 wfc:       2.51 MB

     Dynamical RAM for     wfc (w. buffer):       2.51 MB

     Dynamical RAM for           str. fact:       2.64 MB

     Dynamical RAM for           local pot:       0.00 MB

     Dynamical RAM for          nlocal pot:       5.74 MB

     Dynamical RAM for                qrad:       4.98 MB

     Dynamical RAM for          rho,v,vnew:       6.27 MB

     Dynamical RAM for               rhoin:       2.09 MB

     Dynamical RAM for            rho*nmix:      10.56 MB

     Dynamical RAM for           G-vectors:       2.59 MB

     Dynamical RAM for          h,s,v(r/c):       0.68 MB

     Dynamical RAM for          <psi|beta>:       0.13 MB

     Dynamical RAM for                 psi:       5.01 MB

     Dynamical RAM for                hpsi:       5.01 MB

     Dynamical RAM for                spsi:       5.01 MB

     Dynamical RAM for      wfcinit/wfcrot:       6.94 MB

     Dynamical RAM for           addusdens:     129.30 MB

     Dynamical RAM for          addusforce:     141.55 MB

     Dynamical RAM for         addusstress:     132.60 MB

     Estimated static dynamical RAM per process >      37.27 MB

     Estimated max dynamical RAM per process >     189.37 MB

     Check: negative core charge=   -0.000103

     Initial potential from superposition of free atoms

     starting charge     141.6422, renormalised to     143.0000
     Starting wfcs are  114 randomized atomic wfcs
     Checking if some PAW data can be deallocated... 

     total cpu time spent up to now is       12.9 secs

     Self-consistent Calculation

     iteration #  1     ecut=    30.00 Ry     beta= 0.70
     Davidson diagonalization with overlap

---- Real-time Memory Report at c_bands before calling an iterative solver
           503 MiB given to the printing process from OS
             0 MiB allocation reported by mallinfo(arena+hblkhd)
        159391 MiB available memory on the node where the printing process lives
------------------
     ethr =  1.00E-02,  avg # of iterations =  2.0

     total cpu time spent up to now is       17.7 secs

     total energy              =   -2111.29515930 Ry
     estimated scf accuracy    <       7.86703981 Ry

     iteration #  2     ecut=    30.00 Ry     beta= 0.70
     Davidson diagonalization with overlap

---- Real-time Memory Report at c_bands before calling an iterative solver
           664 MiB given to the printing process from OS
             0 MiB allocation reported by mallinfo(arena+hblkhd)
        159338 MiB available memory on the node where the printing process lives
------------------
     ethr =  5.50E-03,  avg # of iterations =  6.0

     negative rho (up, down):  6.995E-04 0.000E+00

     total cpu time spent up to now is       23.8 secs

     total energy              =   -2102.42600046 Ry
     estimated scf accuracy    <      98.72719032 Ry

     iteration #  3     ecut=    30.00 Ry     beta= 0.70
     Davidson diagonalization with overlap

---- Real-time Memory Report at c_bands before calling an iterative solver
           670 MiB given to the printing process from OS
             0 MiB allocation reported by mallinfo(arena+hblkhd)
        159331 MiB available memory on the node where the printing process lives
------------------
     ethr =  5.50E-03,  avg # of iterations =  3.0

     negative rho (up, down):  3.449E-06 0.000E+00

     total cpu time spent up to now is       26.2 secs

     total energy              =   -2111.67104150 Ry
     estimated scf accuracy    <      68.82699209 Ry

     iteration #  4     ecut=    30.00 Ry     beta= 0.70
     Davidson diagonalization with overlap

---- Real-time Memory Report at c_bands before calling an iterative solver
           670 MiB given to the printing process from OS
             0 MiB allocation reported by mallinfo(arena+hblkhd)
        159332 MiB available memory on the node where the printing process lives
------------------
     ethr =  5.50E-03,  avg # of iterations =  2.0

     negative rho (up, down):  8.775E-06 0.000E+00

     total cpu time spent up to now is       27.4 secs

     total energy              =   -2114.78596210 Ry
     estimated scf accuracy    <      23.31776575 Ry

     iteration #  5     ecut=    30.00 Ry     beta= 0.70
     Davidson diagonalization with overlap

---- Real-time Memory Report at c_bands before calling an iterative solver
           670 MiB given to the printing process from OS
             0 MiB allocation reported by mallinfo(arena+hblkhd)
        159332 MiB available memory on the node where the printing process lives
------------------
     ethr =  5.50E-03,  avg # of iterations =  1.0

     negative rho (up, down):  1.325E-07 0.000E+00

     total cpu time spent up to now is       28.7 secs

     total energy              =   -2115.67481978 Ry
     estimated scf accuracy    <      20.98592568 Ry

     iteration #  6     ecut=    30.00 Ry     beta= 0.70
     Davidson diagonalization with overlap

---- Real-time Memory Report at c_bands before calling an iterative solver
           670 MiB given to the printing process from OS
             0 MiB allocation reported by mallinfo(arena+hblkhd)
        159332 MiB available memory on the node where the printing process lives
------------------
     ethr =  5.50E-03,  avg # of iterations =  1.0

     negative rho (up, down):  5.146E-07 0.000E+00

     total cpu time spent up to now is       29.9 secs

     total energy              =   -2115.32109163 Ry
     estimated scf accuracy    <      27.61764858 Ry

     iteration #  7     ecut=    30.00 Ry     beta= 0.70
     Davidson diagonalization with overlap

---- Real-time Memory Report at c_bands before calling an iterative solver
           670 MiB given to the printing process from OS
             0 MiB allocation reported by mallinfo(arena+hblkhd)
        159333 MiB available memory on the node where the printing process lives
------------------
     ethr =  5.50E-03,  avg # of iterations =  1.0

     total cpu time spent up to now is       31.1 secs

     total energy              =   -2115.89035969 Ry
     estimated scf accuracy    <       4.59039108 Ry

     iteration #  8     ecut=    30.00 Ry     beta= 0.70
     Davidson diagonalization with overlap

---- Real-time Memory Report at c_bands before calling an iterative solver
           670 MiB given to the printing process from OS
             0 MiB allocation reported by mallinfo(arena+hblkhd)
        159300 MiB available memory on the node where the printing process lives
------------------
     ethr =  3.21E-03,  avg # of iterations =  1.0

     negative rho (up, down):  1.338E-05 0.000E+00

     total cpu time spent up to now is       32.3 secs

     total energy              =   -2115.90079379 Ry
     estimated scf accuracy    <       1.43604098 Ry

     iteration #  9     ecut=    30.00 Ry     beta= 0.70
     Davidson diagonalization with overlap

---- Real-time Memory Report at c_bands before calling an iterative solver
           670 MiB given to the printing process from OS
             0 MiB allocation reported by mallinfo(arena+hblkhd)
        159327 MiB available memory on the node where the printing process lives
------------------
     ethr =  1.00E-03,  avg # of iterations =  1.0

     negative rho (up, down):  1.918E-05 0.000E+00

     total cpu time spent up to now is       34.7 secs

     total energy              =   -2115.86099928 Ry
     estimated scf accuracy    <       1.26814863 Ry

     iteration # 10     ecut=    30.00 Ry     beta= 0.70
     Davidson diagonalization with overlap

---- Real-time Memory Report at c_bands before calling an iterative solver
           670 MiB given to the printing process from OS
             0 MiB allocation reported by mallinfo(arena+hblkhd)
        159328 MiB available memory on the node where the printing process lives
------------------
     ethr =  8.87E-04,  avg # of iterations =  1.0

     negative rho (up, down):  1.514E-05 0.000E+00

     total cpu time spent up to now is       38.3 secs

     total energy              =   -2115.80203631 Ry
     estimated scf accuracy    <       1.00252142 Ry

     iteration # 11     ecut=    30.00 Ry     beta= 0.70
     Davidson diagonalization with overlap

---- Real-time Memory Report at c_bands before calling an iterative solver
           670 MiB given to the printing process from OS
             0 MiB allocation reported by mallinfo(arena+hblkhd)
        159330 MiB available memory on the node where the printing process lives
------------------
     ethr =  7.01E-04,  avg # of iterations =  2.0

     negative rho (up, down):  5.082E-05 0.000E+00

     total cpu time spent up to now is       42.6 secs

     total energy              =   -2115.79511566 Ry
     estimated scf accuracy    <       0.58090622 Ry

     iteration # 12     ecut=    30.00 Ry     beta= 0.70
     Davidson diagonalization with overlap

---- Real-time Memory Report at c_bands before calling an iterative solver
           670 MiB given to the printing process from OS
             0 MiB allocation reported by mallinfo(arena+hblkhd)
        159331 MiB available memory on the node where the printing process lives
------------------
     ethr =  4.06E-04,  avg # of iterations =  1.0

     negative rho (up, down):  3.855E-05 0.000E+00

     total cpu time spent up to now is       44.3 secs

     total energy              =   -2115.78672970 Ry
     estimated scf accuracy    <       0.31096368 Ry

     iteration # 13     ecut=    30.00 Ry     beta= 0.70
     Davidson diagonalization with overlap

---- Real-time Memory Report at c_bands before calling an iterative solver
           670 MiB given to the printing process from OS
             0 MiB allocation reported by mallinfo(arena+hblkhd)
        159333 MiB available memory on the node where the printing process lives
------------------
     ethr =  2.17E-04,  avg # of iterations =  3.0

     negative rho (up, down):  7.891E-05 0.000E+00

     total cpu time spent up to now is       48.7 secs

     total energy              =   -2115.72015046 Ry
     estimated scf accuracy    <       1.05089638 Ry

     iteration # 14     ecut=    30.00 Ry     beta= 0.70
     Davidson diagonalization with overlap

---- Real-time Memory Report at c_bands before calling an iterative solver
           670 MiB given to the printing process from OS
             0 MiB allocation reported by mallinfo(arena+hblkhd)
        159334 MiB available memory on the node where the printing process lives
------------------
     ethr =  2.17E-04,  avg # of iterations =  2.0

     negative rho (up, down):  4.717E-05 0.000E+00

     total cpu time spent up to now is       51.2 secs

     total energy              =   -2115.80677899 Ry
     estimated scf accuracy    <       0.21538234 Ry

     iteration # 15     ecut=    30.00 Ry     beta= 0.70
     Davidson diagonalization with overlap

---- Real-time Memory Report at c_bands before calling an iterative solver
           670 MiB given to the printing process from OS
             0 MiB allocation reported by mallinfo(arena+hblkhd)
        159336 MiB available memory on the node where the printing process lives
------------------
     ethr =  1.51E-04,  avg # of iterations =  1.0

     negative rho (up, down):  3.957E-05 0.000E+00

     total cpu time spent up to now is       54.5 secs

     total energy              =   -2115.73152853 Ry
     estimated scf accuracy    <       0.16108508 Ry

     iteration # 16     ecut=    30.00 Ry     beta= 0.70
     Davidson diagonalization with overlap

---- Real-time Memory Report at c_bands before calling an iterative solver
           670 MiB given to the printing process from OS
             0 MiB allocation reported by mallinfo(arena+hblkhd)
        159338 MiB available memory on the node where the printing process lives
------------------
     ethr =  1.13E-04,  avg # of iterations =  2.0

     negative rho (up, down):  3.411E-04 0.000E+00

     total cpu time spent up to now is       55.8 secs

     total energy              =   -2115.25282995 Ry
     estimated scf accuracy    <      26.19481466 Ry

     iteration # 17     ecut=    30.00 Ry     beta= 0.70
     Davidson diagonalization with overlap

---- Real-time Memory Report at c_bands before calling an iterative solver
           670 MiB given to the printing process from OS
             0 MiB allocation reported by mallinfo(arena+hblkhd)
        159339 MiB available memory on the node where the printing process lives
------------------
     ethr =  1.13E-04,  avg # of iterations =  2.0

     negative rho (up, down):  3.553E-06 0.000E+00

     total cpu time spent up to now is       57.2 secs

     total energy              =   -2115.77056730 Ry
     estimated scf accuracy    <       0.26180829 Ry

     iteration # 18     ecut=    30.00 Ry     beta= 0.70
     Davidson diagonalization with overlap

---- Real-time Memory Report at c_bands before calling an iterative solver
           670 MiB given to the printing process from OS
             0 MiB allocation reported by mallinfo(arena+hblkhd)
        159318 MiB available memory on the node where the printing process lives
------------------
     ethr =  1.13E-04,  avg # of iterations =  1.0

     negative rho (up, down):  2.316E-05 0.000E+00

     total cpu time spent up to now is       60.0 secs

     total energy              =   -2115.80238832 Ry
     estimated scf accuracy    <       0.06857800 Ry

     iteration # 19     ecut=    30.00 Ry     beta= 0.70
     Davidson diagonalization with overlap

---- Real-time Memory Report at c_bands before calling an iterative solver
           671 MiB given to the printing process from OS
             0 MiB allocation reported by mallinfo(arena+hblkhd)
        159319 MiB available memory on the node where the printing process lives
------------------
     ethr =  4.80E-05,  avg # of iterations =  2.0

     negative rho (up, down):  3.273E-05 0.000E+00

     total cpu time spent up to now is       61.3 secs

     total energy              =   -2115.80464107 Ry
     estimated scf accuracy    <       0.04191593 Ry

     iteration # 20     ecut=    30.00 Ry     beta= 0.70
     Davidson diagonalization with overlap

---- Real-time Memory Report at c_bands before calling an iterative solver
           672 MiB given to the printing process from OS
             0 MiB allocation reported by mallinfo(arena+hblkhd)
        159319 MiB available memory on the node where the printing process lives
------------------
     ethr =  2.93E-05,  avg # of iterations =  3.0

     negative rho (up, down):  4.231E-05 0.000E+00

     total cpu time spent up to now is       62.5 secs

     total energy              =   -2115.80919476 Ry
     estimated scf accuracy    <       0.07251950 Ry

     iteration # 21     ecut=    30.00 Ry     beta= 0.70
     Davidson diagonalization with overlap

---- Real-time Memory Report at c_bands before calling an iterative solver
           672 MiB given to the printing process from OS
             0 MiB allocation reported by mallinfo(arena+hblkhd)
        159319 MiB available memory on the node where the printing process lives
------------------
     ethr =  2.93E-05,  avg # of iterations =  2.0

     negative rho (up, down):  3.087E-05 0.000E+00

     total cpu time spent up to now is       63.8 secs

     total energy              =   -2115.81410071 Ry
     estimated scf accuracy    <       0.06804004 Ry

     iteration # 22     ecut=    30.00 Ry     beta= 0.70
     Davidson diagonalization with overlap

---- Real-time Memory Report at c_bands before calling an iterative solver
           672 MiB given to the printing process from OS
             0 MiB allocation reported by mallinfo(arena+hblkhd)
        159320 MiB available memory on the node where the printing process lives
------------------
     ethr =  2.93E-05,  avg # of iterations =  1.0

     negative rho (up, down):  2.457E-05 0.000E+00

     total cpu time spent up to now is       65.0 secs

     total energy              =   -2115.81606375 Ry
     estimated scf accuracy    <       0.04391831 Ry

     iteration # 23     ecut=    30.00 Ry     beta= 0.70
     Davidson diagonalization with overlap

---- Real-time Memory Report at c_bands before calling an iterative solver
           672 MiB given to the printing process from OS
             0 MiB allocation reported by mallinfo(arena+hblkhd)
        159342 MiB available memory on the node where the printing process lives
------------------
     ethr =  2.93E-05,  avg # of iterations =  2.0

     negative rho (up, down):  2.168E-05 0.000E+00

     total cpu time spent up to now is       66.3 secs

     total energy              =   -2115.81670393 Ry
     estimated scf accuracy    <       0.02371398 Ry

     iteration # 24     ecut=    30.00 Ry     beta= 0.70
     Davidson diagonalization with overlap

---- Real-time Memory Report at c_bands before calling an iterative solver
           672 MiB given to the printing process from OS
             0 MiB allocation reported by mallinfo(arena+hblkhd)
        159343 MiB available memory on the node where the printing process lives
------------------
     ethr =  1.66E-05,  avg # of iterations =  3.0

     negative rho (up, down):  1.938E-05 0.000E+00

     total cpu time spent up to now is       67.5 secs

     total energy              =   -2115.81726706 Ry
     estimated scf accuracy    <       0.00792506 Ry

     iteration # 25     ecut=    30.00 Ry     beta= 0.70
     Davidson diagonalization with overlap

---- Real-time Memory Report at c_bands before calling an iterative solver
           672 MiB given to the printing process from OS
             0 MiB allocation reported by mallinfo(arena+hblkhd)
        159343 MiB available memory on the node where the printing process lives
------------------
     ethr =  5.54E-06,  avg # of iterations = 10.0

     negative rho (up, down):  2.509E-05 0.000E+00

     total cpu time spent up to now is       68.8 secs

     total energy              =   -2115.81136262 Ry
     estimated scf accuracy    <       0.15135504 Ry

     iteration # 26     ecut=    30.00 Ry     beta= 0.70
     Davidson diagonalization with overlap

---- Real-time Memory Report at c_bands before calling an iterative solver
           672 MiB given to the printing process from OS
             0 MiB allocation reported by mallinfo(arena+hblkhd)
        159344 MiB available memory on the node where the printing process lives
------------------
     ethr =  5.54E-06,  avg # of iterations =  2.0

     negative rho (up, down):  2.910E-05 0.000E+00

     total cpu time spent up to now is       70.1 secs

     total energy              =   -2115.80460497 Ry
     estimated scf accuracy    <       0.10807227 Ry

     iteration # 27     ecut=    30.00 Ry     beta= 0.70
     Davidson diagonalization with overlap

---- Real-time Memory Report at c_bands before calling an iterative solver
           672 MiB given to the printing process from OS
             0 MiB allocation reported by mallinfo(arena+hblkhd)
        159344 MiB available memory on the node where the printing process lives
------------------
     ethr =  5.54E-06,  avg # of iterations =  2.0

     negative rho (up, down):  2.801E-05 0.000E+00

     total cpu time spent up to now is       71.3 secs

     total energy              =   -2115.80559299 Ry
     estimated scf accuracy    <       0.06667031 Ry

     iteration # 28     ecut=    30.00 Ry     beta= 0.70
     Davidson diagonalization with overlap

---- Real-time Memory Report at c_bands before calling an iterative solver
           672 MiB given to the printing process from OS
             0 MiB allocation reported by mallinfo(arena+hblkhd)
        159345 MiB available memory on the node where the printing process lives
------------------
     ethr =  5.54E-06,  avg # of iterations =  1.0

     negative rho (up, down):  3.297E-05 0.000E+00

     total cpu time spent up to now is       72.5 secs

     total energy              =   -2115.80306397 Ry
     estimated scf accuracy    <       0.04368986 Ry

     iteration # 29     ecut=    30.00 Ry     beta= 0.70
     Davidson diagonalization with overlap

---- Real-time Memory Report at c_bands before calling an iterative solver
           672 MiB given to the printing process from OS
             0 MiB allocation reported by mallinfo(arena+hblkhd)
        159333 MiB available memory on the node where the printing process lives
------------------
     ethr =  5.54E-06,  avg # of iterations =  1.0

     negative rho (up, down):  2.974E-05 0.000E+00

     total cpu time spent up to now is       73.8 secs

     total energy              =   -2115.80436406 Ry
     estimated scf accuracy    <       0.17295090 Ry

     iteration # 30     ecut=    30.00 Ry     beta= 0.70
     Davidson diagonalization with overlap

---- Real-time Memory Report at c_bands before calling an iterative solver
           672 MiB given to the printing process from OS
             0 MiB allocation reported by mallinfo(arena+hblkhd)
        159325 MiB available memory on the node where the printing process lives
------------------
     ethr =  5.54E-06,  avg # of iterations =  1.0

     negative rho (up, down):  2.783E-05 0.000E+00

     total cpu time spent up to now is       75.0 secs

     total energy              =   -2115.80563653 Ry
     estimated scf accuracy    <       0.13224449 Ry

     iteration # 31     ecut=    30.00 Ry     beta= 0.70
     Davidson diagonalization with overlap

---- Real-time Memory Report at c_bands before calling an iterative solver
           672 MiB given to the printing process from OS
             0 MiB allocation reported by mallinfo(arena+hblkhd)
        159325 MiB available memory on the node where the printing process lives
------------------
     ethr =  5.54E-06,  avg # of iterations =  1.0

     negative rho (up, down):  2.398E-05 0.000E+00

     total cpu time spent up to now is       76.3 secs

     total energy              =   -2115.80786214 Ry
     estimated scf accuracy    <       0.11446293 Ry

     iteration # 32     ecut=    30.00 Ry     beta= 0.70
     Davidson diagonalization with overlap

---- Real-time Memory Report at c_bands before calling an iterative solver
           672 MiB given to the printing process from OS
             0 MiB allocation reported by mallinfo(arena+hblkhd)
        159325 MiB available memory on the node where the printing process lives
------------------
     ethr =  5.54E-06,  avg # of iterations =  1.0

     negative rho (up, down):  2.200E-05 0.000E+00

     total cpu time spent up to now is       77.5 secs

     total energy              =   -2115.80907333 Ry
     estimated scf accuracy    <       0.07766928 Ry

     iteration # 33     ecut=    30.00 Ry     beta= 0.70
     Davidson diagonalization with overlap

---- Real-time Memory Report at c_bands before calling an iterative solver
           672 MiB given to the printing process from OS
             0 MiB allocation reported by mallinfo(arena+hblkhd)
        159325 MiB available memory on the node where the printing process lives
------------------
     ethr =  5.54E-06,  avg # of iterations =  1.0

     negative rho (up, down):  2.507E-05 0.000E+00

     total cpu time spent up to now is       78.7 secs

     total energy              =   -2115.80893325 Ry
     estimated scf accuracy    <       0.04057793 Ry

     iteration # 34     ecut=    30.00 Ry     beta= 0.70
     Davidson diagonalization with overlap

---- Real-time Memory Report at c_bands before calling an iterative solver
           672 MiB given to the printing process from OS
             0 MiB allocation reported by mallinfo(arena+hblkhd)
        159325 MiB available memory on the node where the printing process lives
------------------
     ethr =  5.54E-06,  avg # of iterations =  2.0

     negative rho (up, down):  2.969E-05 0.000E+00

     total cpu time spent up to now is       80.0 secs

     total energy              =   -2115.81154703 Ry
     estimated scf accuracy    <       0.19176416 Ry

     iteration # 35     ecut=    30.00 Ry     beta= 0.70
     Davidson diagonalization with overlap

---- Real-time Memory Report at c_bands before calling an iterative solver
           672 MiB given to the printing process from OS
             0 MiB allocation reported by mallinfo(arena+hblkhd)
        159315 MiB available memory on the node where the printing process lives
------------------
     ethr =  5.54E-06,  avg # of iterations =  2.0

     negative rho (up, down):  3.478E-05 0.000E+00

     total cpu time spent up to now is       81.3 secs

     total energy              =   -2115.81386509 Ry
     estimated scf accuracy    <       0.04508572 Ry

     iteration # 36     ecut=    30.00 Ry     beta= 0.70
     Davidson diagonalization with overlap

---- Real-time Memory Report at c_bands before calling an iterative solver
           672 MiB given to the printing process from OS
             0 MiB allocation reported by mallinfo(arena+hblkhd)
        159327 MiB available memory on the node where the printing process lives
------------------
     ethr =  5.54E-06,  avg # of iterations =  1.0

     negative rho (up, down):  3.628E-05 0.000E+00

     total cpu time spent up to now is       82.6 secs

     total energy              =   -2115.81252125 Ry
     estimated scf accuracy    <       0.06043876 Ry

     iteration # 37     ecut=    30.00 Ry     beta= 0.70
     Davidson diagonalization with overlap

---- Real-time Memory Report at c_bands before calling an iterative solver
           672 MiB given to the printing process from OS
             0 MiB allocation reported by mallinfo(arena+hblkhd)
        159334 MiB available memory on the node where the printing process lives
------------------
     ethr =  5.54E-06,  avg # of iterations =  1.0

     negative rho (up, down):  3.577E-05 0.000E+00

     total cpu time spent up to now is       83.8 secs

     total energy              =   -2115.81372740 Ry
     estimated scf accuracy    <       0.03552912 Ry

     iteration # 38     ecut=    30.00 Ry     beta= 0.70
     Davidson diagonalization with overlap

---- Real-time Memory Report at c_bands before calling an iterative solver
           672 MiB given to the printing process from OS
             0 MiB allocation reported by mallinfo(arena+hblkhd)
        159334 MiB available memory on the node where the printing process lives
------------------
     ethr =  5.54E-06,  avg # of iterations =  1.0

     negative rho (up, down):  3.009E-05 0.000E+00

     total cpu time spent up to now is       85.0 secs

     total energy              =   -2115.81560336 Ry
     estimated scf accuracy    <       0.02907540 Ry

     iteration # 39     ecut=    30.00 Ry     beta= 0.70
     Davidson diagonalization with overlap

---- Real-time Memory Report at c_bands before calling an iterative solver
           672 MiB given to the printing process from OS
             0 MiB allocation reported by mallinfo(arena+hblkhd)
        159334 MiB available memory on the node where the printing process lives
------------------
     ethr =  5.54E-06,  avg # of iterations =  1.0

     negative rho (up, down):  2.737E-05 0.000E+00

     total cpu time spent up to now is       86.2 secs

     total energy              =   -2115.81676736 Ry
     estimated scf accuracy    <       0.01486426 Ry

     iteration # 40     ecut=    30.00 Ry     beta= 0.70
     Davidson diagonalization with overlap

---- Real-time Memory Report at c_bands before calling an iterative solver
           672 MiB given to the printing process from OS
             0 MiB allocation reported by mallinfo(arena+hblkhd)
        159334 MiB available memory on the node where the printing process lives
------------------
     ethr =  5.54E-06,  avg # of iterations =  1.0

     negative rho (up, down):  3.144E-05 0.000E+00

     total cpu time spent up to now is       87.4 secs

     total energy              =   -2115.81554247 Ry
     estimated scf accuracy    <       0.00881613 Ry

     iteration # 41     ecut=    30.00 Ry     beta= 0.70
     Davidson diagonalization with overlap

---- Real-time Memory Report at c_bands before calling an iterative solver
           672 MiB given to the printing process from OS
             0 MiB allocation reported by mallinfo(arena+hblkhd)
        159334 MiB available memory on the node where the printing process lives
------------------
     ethr =  5.54E-06,  avg # of iterations =  1.0

     negative rho (up, down):  3.190E-05 0.000E+00

     total cpu time spent up to now is       88.6 secs

     total energy              =   -2115.81531650 Ry
     estimated scf accuracy    <       0.01187763 Ry

     iteration # 42     ecut=    30.00 Ry     beta= 0.70
     Davidson diagonalization with overlap

---- Real-time Memory Report at c_bands before calling an iterative solver
           672 MiB given to the printing process from OS
             0 MiB allocation reported by mallinfo(arena+hblkhd)
        159333 MiB available memory on the node where the printing process lives
------------------
     ethr =  5.54E-06,  avg # of iterations =  1.0

     negative rho (up, down):  1.784E-05 0.000E+00

     total cpu time spent up to now is       89.8 secs

     total energy              =   -2115.81756466 Ry
     estimated scf accuracy    <       0.01141568 Ry

     iteration # 43     ecut=    30.00 Ry     beta= 0.70
     Davidson diagonalization with overlap

---- Real-time Memory Report at c_bands before calling an iterative solver
           672 MiB given to the printing process from OS
             0 MiB allocation reported by mallinfo(arena+hblkhd)
        159334 MiB available memory on the node where the printing process lives
------------------
     ethr =  5.54E-06,  avg # of iterations =  1.0

     negative rho (up, down):  1.819E-05 0.000E+00

     total cpu time spent up to now is       91.0 secs

     total energy              =   -2115.81146893 Ry
     estimated scf accuracy    <       0.19592103 Ry

     iteration # 44     ecut=    30.00 Ry     beta= 0.70
     Davidson diagonalization with overlap

---- Real-time Memory Report at c_bands before calling an iterative solver
           672 MiB given to the printing process from OS
             0 MiB allocation reported by mallinfo(arena+hblkhd)
        159334 MiB available memory on the node where the printing process lives
------------------
     ethr =  5.54E-06,  avg # of iterations =  2.0

     negative rho (up, down):  1.819E-05 0.000E+00

     total cpu time spent up to now is       92.3 secs

     total energy              =   -2115.80814786 Ry
     estimated scf accuracy    <       0.11919826 Ry

     iteration # 45     ecut=    30.00 Ry     beta= 0.70
     Davidson diagonalization with overlap

---- Real-time Memory Report at c_bands before calling an iterative solver
           672 MiB given to the printing process from OS
             0 MiB allocation reported by mallinfo(arena+hblkhd)
        159306 MiB available memory on the node where the printing process lives
------------------
     ethr =  5.54E-06,  avg # of iterations =  1.0

     negative rho (up, down):  1.951E-05 0.000E+00

     total cpu time spent up to now is       93.5 secs

     total energy              =   -2115.80548707 Ry
     estimated scf accuracy    <       0.09620113 Ry

     iteration # 46     ecut=    30.00 Ry     beta= 0.70
     Davidson diagonalization with overlap

---- Real-time Memory Report at c_bands before calling an iterative solver
           672 MiB given to the printing process from OS
             0 MiB allocation reported by mallinfo(arena+hblkhd)
        159306 MiB available memory on the node where the printing process lives
------------------
     ethr =  5.54E-06,  avg # of iterations =  1.0

     negative rho (up, down):  1.879E-05 0.000E+00

     total cpu time spent up to now is       94.7 secs

     total energy              =   -2115.80536626 Ry
     estimated scf accuracy    <       0.06771421 Ry

     iteration # 47     ecut=    30.00 Ry     beta= 0.70
     Davidson diagonalization with overlap

---- Real-time Memory Report at c_bands before calling an iterative solver
           672 MiB given to the printing process from OS
             0 MiB allocation reported by mallinfo(arena+hblkhd)
        159306 MiB available memory on the node where the printing process lives
------------------
     ethr =  5.54E-06,  avg # of iterations =  1.0

     negative rho (up, down):  1.991E-05 0.000E+00

     total cpu time spent up to now is       95.9 secs

     total energy              =   -2115.80408474 Ry
     estimated scf accuracy    <       0.06733864 Ry

     iteration # 48     ecut=    30.00 Ry     beta= 0.70
     Davidson diagonalization with overlap

---- Real-time Memory Report at c_bands before calling an iterative solver
           672 MiB given to the printing process from OS
             0 MiB allocation reported by mallinfo(arena+hblkhd)
        159307 MiB available memory on the node where the printing process lives
------------------
     ethr =  5.54E-06,  avg # of iterations =  1.0

     negative rho (up, down):  1.878E-05 0.000E+00

     total cpu time spent up to now is       97.1 secs

     total energy              =   -2115.80507832 Ry
     estimated scf accuracy    <       0.03693020 Ry

     iteration # 49     ecut=    30.00 Ry     beta= 0.70
     Davidson diagonalization with overlap

---- Real-time Memory Report at c_bands before calling an iterative solver
           672 MiB given to the printing process from OS
             0 MiB allocation reported by mallinfo(arena+hblkhd)
        159307 MiB available memory on the node where the printing process lives
------------------
     ethr =  5.54E-06,  avg # of iterations =  1.0

     negative rho (up, down):  1.959E-05 0.000E+00

     total cpu time spent up to now is       98.3 secs

     total energy              =   -2115.80532829 Ry
     estimated scf accuracy    <       0.01950257 Ry

     iteration # 50     ecut=    30.00 Ry     beta= 0.70
     Davidson diagonalization with overlap

---- Real-time Memory Report at c_bands before calling an iterative solver
           672 MiB given to the printing process from OS
             0 MiB allocation reported by mallinfo(arena+hblkhd)
        159307 MiB available memory on the node where the printing process lives
------------------
     ethr =  5.54E-06,  avg # of iterations =  1.0

     negative rho (up, down):  1.526E-05 0.000E+00

     total cpu time spent up to now is       99.5 secs

     total energy              =   -2115.81015382 Ry
     estimated scf accuracy    <       0.03227904 Ry

     iteration # 51     ecut=    30.00 Ry     beta= 0.70
     Davidson diagonalization with overlap

---- Real-time Memory Report at c_bands before calling an iterative solver
           672 MiB given to the printing process from OS
             0 MiB allocation reported by mallinfo(arena+hblkhd)
        159307 MiB available memory on the node where the printing process lives
------------------
     ethr =  5.54E-06,  avg # of iterations =  1.0

     negative rho (up, down):  3.851E-05 0.000E+00

     total cpu time spent up to now is      100.7 secs

     total energy              =   -2115.80667947 Ry
     estimated scf accuracy    <       0.07773310 Ry

     iteration # 52     ecut=    30.00 Ry     beta= 0.70
     Davidson diagonalization with overlap

---- Real-time Memory Report at c_bands before calling an iterative solver
           672 MiB given to the printing process from OS
             0 MiB allocation reported by mallinfo(arena+hblkhd)
        159336 MiB available memory on the node where the printing process lives
------------------
     ethr =  5.54E-06,  avg # of iterations =  2.0

     negative rho (up, down):  7.238E-05 0.000E+00

     total cpu time spent up to now is      102.0 secs

     total energy              =   -2115.80083924 Ry
     estimated scf accuracy    <       0.34367880 Ry

     iteration # 53     ecut=    30.00 Ry     beta= 0.70
     Davidson diagonalization with overlap

---- Real-time Memory Report at c_bands before calling an iterative solver
           672 MiB given to the printing process from OS
             0 MiB allocation reported by mallinfo(arena+hblkhd)
        159335 MiB available memory on the node where the printing process lives
------------------
     ethr =  5.54E-06,  avg # of iterations =  2.0

     negative rho (up, down):  7.965E-05 0.000E+00

     total cpu time spent up to now is      103.3 secs

     total energy              =   -2115.79963246 Ry
     estimated scf accuracy    <       0.34970207 Ry

     iteration # 54     ecut=    30.00 Ry     beta= 0.70
     Davidson diagonalization with overlap

---- Real-time Memory Report at c_bands before calling an iterative solver
           672 MiB given to the printing process from OS
             0 MiB allocation reported by mallinfo(arena+hblkhd)
        159336 MiB available memory on the node where the printing process lives
------------------
     ethr =  5.54E-06,  avg # of iterations =  1.0

     negative rho (up, down):  7.382E-05 0.000E+00

     total cpu time spent up to now is      104.5 secs

     total energy              =   -2115.79482163 Ry
     estimated scf accuracy    <       0.32514167 Ry

     iteration # 55     ecut=    30.00 Ry     beta= 0.70
     Davidson diagonalization with overlap

---- Real-time Memory Report at c_bands before calling an iterative solver
           672 MiB given to the printing process from OS
             0 MiB allocation reported by mallinfo(arena+hblkhd)
        159336 MiB available memory on the node where the printing process lives
------------------
     ethr =  5.54E-06,  avg # of iterations =  2.0

     negative rho (up, down):  4.623E-05 0.000E+00

     total cpu time spent up to now is      105.8 secs

     total energy              =   -2115.80423855 Ry
     estimated scf accuracy    <       0.11779382 Ry

     iteration # 56     ecut=    30.00 Ry     beta= 0.70
     Davidson diagonalization with overlap

---- Real-time Memory Report at c_bands before calling an iterative solver
           672 MiB given to the printing process from OS
             0 MiB allocation reported by mallinfo(arena+hblkhd)
        159337 MiB available memory on the node where the printing process lives
------------------
     ethr =  5.54E-06,  avg # of iterations =  3.0

     negative rho (up, down):  4.569E-05 0.000E+00

     total cpu time spent up to now is      107.1 secs

     total energy              =   -2115.80507007 Ry
     estimated scf accuracy    <       0.12677289 Ry

     iteration # 57     ecut=    30.00 Ry     beta= 0.70
     Davidson diagonalization with overlap

---- Real-time Memory Report at c_bands before calling an iterative solver
           672 MiB given to the printing process from OS
             0 MiB allocation reported by mallinfo(arena+hblkhd)
        159337 MiB available memory on the node where the printing process lives
------------------
     ethr =  5.54E-06,  avg # of iterations =  2.0

     negative rho (up, down):  4.100E-05 0.000E+00

     total cpu time spent up to now is      108.4 secs

     total energy              =   -2115.80819116 Ry
     estimated scf accuracy    <       0.07009192 Ry

     iteration # 58     ecut=    30.00 Ry     beta= 0.70
     Davidson diagonalization with overlap

---- Real-time Memory Report at c_bands before calling an iterative solver
           672 MiB given to the printing process from OS
             0 MiB allocation reported by mallinfo(arena+hblkhd)
        159327 MiB available memory on the node where the printing process lives
------------------
     ethr =  5.54E-06,  avg # of iterations =  1.0

     negative rho (up, down):  3.817E-05 0.000E+00

     total cpu time spent up to now is      109.6 secs

     total energy              =   -2115.79714821 Ry
     estimated scf accuracy    <       0.11013915 Ry

     iteration # 59     ecut=    30.00 Ry     beta= 0.70
     Davidson diagonalization with overlap

---- Real-time Memory Report at c_bands before calling an iterative solver
           672 MiB given to the printing process from OS
             0 MiB allocation reported by mallinfo(arena+hblkhd)
        159304 MiB available memory on the node where the printing process lives
------------------
     ethr =  5.54E-06,  avg # of iterations =  8.0

     negative rho (up, down):  2.661E-05 0.000E+00

     total cpu time spent up to now is      111.1 secs

     total energy              =   -2115.79720411 Ry
     estimated scf accuracy    <       0.72219623 Ry

     iteration # 60     ecut=    30.00 Ry     beta= 0.70
     Davidson diagonalization with overlap

---- Real-time Memory Report at c_bands before calling an iterative solver
           672 MiB given to the printing process from OS
             0 MiB allocation reported by mallinfo(arena+hblkhd)
        159304 MiB available memory on the node where the printing process lives
------------------
     ethr =  5.54E-06,  avg # of iterations =  8.0

     negative rho (up, down):  2.012E-05 0.000E+00

     total cpu time spent up to now is      112.5 secs

     total energy              =   -2115.80644330 Ry
     estimated scf accuracy    <       0.12788873 Ry

     iteration # 61     ecut=    30.00 Ry     beta= 0.70
     Davidson diagonalization with overlap

---- Real-time Memory Report at c_bands before calling an iterative solver
           672 MiB given to the printing process from OS
             0 MiB allocation reported by mallinfo(arena+hblkhd)
        159304 MiB available memory on the node where the printing process lives
------------------
     ethr =  5.54E-06,  avg # of iterations =  2.0

     negative rho (up, down):  1.869E-05 0.000E+00

     total cpu time spent up to now is      113.7 secs

     total energy              =   -2115.80777578 Ry
     estimated scf accuracy    <       0.07572157 Ry

     iteration # 62     ecut=    30.00 Ry     beta= 0.70
     Davidson diagonalization with overlap

---- Real-time Memory Report at c_bands before calling an iterative solver
           672 MiB given to the printing process from OS
             0 MiB allocation reported by mallinfo(arena+hblkhd)
        159305 MiB available memory on the node where the printing process lives
------------------
     ethr =  5.54E-06,  avg # of iterations =  2.0

     negative rho (up, down):  1.774E-05 0.000E+00

     total cpu time spent up to now is      115.0 secs

     total energy              =   -2115.80711282 Ry
     estimated scf accuracy    <       0.03385930 Ry

     iteration # 63     ecut=    30.00 Ry     beta= 0.70
     Davidson diagonalization with overlap

---- Real-time Memory Report at c_bands before calling an iterative solver
           672 MiB given to the printing process from OS
             0 MiB allocation reported by mallinfo(arena+hblkhd)
        159305 MiB available memory on the node where the printing process lives
------------------
     ethr =  5.54E-06,  avg # of iterations =  1.0

     negative rho (up, down):  1.773E-05 0.000E+00

     total cpu time spent up to now is      116.2 secs

     total energy              =   -2115.80884437 Ry
     estimated scf accuracy    <       0.05921710 Ry

     iteration # 64     ecut=    30.00 Ry     beta= 0.70
     Davidson diagonalization with overlap

---- Real-time Memory Report at c_bands before calling an iterative solver
           672 MiB given to the printing process from OS
             0 MiB allocation reported by mallinfo(arena+hblkhd)
        159305 MiB available memory on the node where the printing process lives
------------------
     ethr =  5.54E-06,  avg # of iterations =  1.0

     negative rho (up, down):  1.755E-05 0.000E+00

     total cpu time spent up to now is      117.4 secs

     total energy              =   -2115.80789709 Ry
     estimated scf accuracy    <       0.01826074 Ry

     iteration # 65     ecut=    30.00 Ry     beta= 0.70
     Davidson diagonalization with overlap

---- Real-time Memory Report at c_bands before calling an iterative solver
           672 MiB given to the printing process from OS
             0 MiB allocation reported by mallinfo(arena+hblkhd)
        159305 MiB available memory on the node where the printing process lives
------------------
     ethr =  5.54E-06,  avg # of iterations =  1.0

     negative rho (up, down):  2.690E-05 0.000E+00

     total cpu time spent up to now is      118.9 secs

     total energy              =   -2115.80597078 Ry
     estimated scf accuracy    <       0.02636364 Ry

     iteration # 66     ecut=    30.00 Ry     beta= 0.70
     Davidson diagonalization with overlap

---- Real-time Memory Report at c_bands before calling an iterative solver
           672 MiB given to the printing process from OS
             0 MiB allocation reported by mallinfo(arena+hblkhd)
        159302 MiB available memory on the node where the printing process lives
------------------
     ethr =  5.54E-06,  avg # of iterations =  1.0

     negative rho (up, down):  3.967E-05 0.000E+00

     total cpu time spent up to now is      120.4 secs

     total energy              =   -2115.80329710 Ry
     estimated scf accuracy    <       0.05195486 Ry

     iteration # 67     ecut=    30.00 Ry     beta= 0.70
     Davidson diagonalization with overlap

---- Real-time Memory Report at c_bands before calling an iterative solver
           672 MiB given to the printing process from OS
             0 MiB allocation reported by mallinfo(arena+hblkhd)
        159321 MiB available memory on the node where the printing process lives
------------------
     ethr =  5.54E-06,  avg # of iterations =  1.0

     negative rho (up, down):  4.274E-05 0.000E+00

     total cpu time spent up to now is      121.6 secs

     total energy              =   -2115.80839205 Ry
     estimated scf accuracy    <       0.05100120 Ry

     iteration # 68     ecut=    30.00 Ry     beta= 0.70
     Davidson diagonalization with overlap

---- Real-time Memory Report at c_bands before calling an iterative solver
           672 MiB given to the printing process from OS
             0 MiB allocation reported by mallinfo(arena+hblkhd)
        159321 MiB available memory on the node where the printing process lives
------------------
     ethr =  5.54E-06,  avg # of iterations =  2.0

     negative rho (up, down):  4.785E-05 0.000E+00

     total cpu time spent up to now is      124.1 secs

     total energy              =   -2115.80236915 Ry
     estimated scf accuracy    <       0.20708974 Ry

     iteration # 69     ecut=    30.00 Ry     beta= 0.70
     Davidson diagonalization with overlap

---- Real-time Memory Report at c_bands before calling an iterative solver
           672 MiB given to the printing process from OS
             0 MiB allocation reported by mallinfo(arena+hblkhd)
        159322 MiB available memory on the node where the printing process lives
------------------
     ethr =  5.54E-06,  avg # of iterations =  2.0

     negative rho (up, down):  4.222E-05 0.000E+00

     total cpu time spent up to now is      128.1 secs

     total energy              =   -2115.80846942 Ry
     estimated scf accuracy    <       0.07008019 Ry

     iteration # 70     ecut=    30.00 Ry     beta= 0.70
     Davidson diagonalization with overlap

---- Real-time Memory Report at c_bands before calling an iterative solver
           672 MiB given to the printing process from OS
             0 MiB allocation reported by mallinfo(arena+hblkhd)
        159322 MiB available memory on the node where the printing process lives
------------------
     ethr =  5.54E-06,  avg # of iterations =  1.0

     negative rho (up, down):  4.967E-05 0.000E+00

     total cpu time spent up to now is      129.3 secs

     total energy              =   -2115.80755126 Ry
     estimated scf accuracy    <       0.09307606 Ry

     iteration # 71     ecut=    30.00 Ry     beta= 0.70
     Davidson diagonalization with overlap

---- Real-time Memory Report at c_bands before calling an iterative solver
           672 MiB given to the printing process from OS
             0 MiB allocation reported by mallinfo(arena+hblkhd)
        159324 MiB available memory on the node where the printing process lives
------------------
     ethr =  5.54E-06,  avg # of iterations =  2.0

     negative rho (up, down):  5.286E-05 0.000E+00

     total cpu time spent up to now is      131.3 secs

     total energy              =   -2115.80696791 Ry
     estimated scf accuracy    <       0.08274022 Ry

     iteration # 72     ecut=    30.00 Ry     beta= 0.70
     Davidson diagonalization with overlap

---- Real-time Memory Report at c_bands before calling an iterative solver
           672 MiB given to the printing process from OS
             0 MiB allocation reported by mallinfo(arena+hblkhd)
        159310 MiB available memory on the node where the printing process lives
------------------
     ethr =  5.54E-06,  avg # of iterations =  2.0

     negative rho (up, down):  4.915E-05 0.000E+00

     total cpu time spent up to now is      133.0 secs

     total energy              =   -2115.80681814 Ry
     estimated scf accuracy    <       0.09824232 Ry

     iteration # 73     ecut=    30.00 Ry     beta= 0.70
     Davidson diagonalization with overlap

---- Real-time Memory Report at c_bands before calling an iterative solver
           672 MiB given to the printing process from OS
             0 MiB allocation reported by mallinfo(arena+hblkhd)
        159313 MiB available memory on the node where the printing process lives
------------------
     ethr =  5.54E-06,  avg # of iterations =  2.0

     negative rho (up, down):  4.680E-05 0.000E+00

     total cpu time spent up to now is      134.4 secs

     total energy              =   -2115.80876925 Ry
     estimated scf accuracy    <       0.08182204 Ry

     iteration # 74     ecut=    30.00 Ry     beta= 0.70
     Davidson diagonalization with overlap

---- Real-time Memory Report at c_bands before calling an iterative solver
           672 MiB given to the printing process from OS
             0 MiB allocation reported by mallinfo(arena+hblkhd)
        159314 MiB available memory on the node where the printing process lives
------------------
     ethr =  5.54E-06,  avg # of iterations =  1.0

     negative rho (up, down):  3.302E-05 0.000E+00

     total cpu time spent up to now is      135.7 secs

     total energy              =   -2115.78960782 Ry
     estimated scf accuracy    <       0.11086151 Ry

     iteration # 75     ecut=    30.00 Ry     beta= 0.70
     Davidson diagonalization with overlap

---- Real-time Memory Report at c_bands before calling an iterative solver
           672 MiB given to the printing process from OS
             0 MiB allocation reported by mallinfo(arena+hblkhd)
        159314 MiB available memory on the node where the printing process lives
------------------
     ethr =  5.54E-06,  avg # of iterations =  3.0

     negative rho (up, down):  2.039E-05 0.000E+00

     total cpu time spent up to now is      137.1 secs

     total energy              =   -2115.79510460 Ry
     estimated scf accuracy    <       0.55486539 Ry

     iteration # 76     ecut=    30.00 Ry     beta= 0.70
     Davidson diagonalization with overlap

---- Real-time Memory Report at c_bands before calling an iterative solver
           672 MiB given to the printing process from OS
             0 MiB allocation reported by mallinfo(arena+hblkhd)
        159293 MiB available memory on the node where the printing process lives
------------------
     ethr =  5.54E-06,  avg # of iterations =  3.0

     negative rho (up, down):  1.698E-05 0.000E+00

     total cpu time spent up to now is      138.6 secs

     total energy              =   -2115.80256267 Ry
     estimated scf accuracy    <       0.37617340 Ry

     iteration # 77     ecut=    30.00 Ry     beta= 0.70
     Davidson diagonalization with overlap

---- Real-time Memory Report at c_bands before calling an iterative solver
           672 MiB given to the printing process from OS
             0 MiB allocation reported by mallinfo(arena+hblkhd)
        159294 MiB available memory on the node where the printing process lives
------------------
     ethr =  5.54E-06,  avg # of iterations =  2.0

     negative rho (up, down):  1.280E-05 0.000E+00

     total cpu time spent up to now is      139.9 secs

     total energy              =   -2115.80997852 Ry
     estimated scf accuracy    <       0.03028005 Ry

     iteration # 78     ecut=    30.00 Ry     beta= 0.70
     Davidson diagonalization with overlap

---- Real-time Memory Report at c_bands before calling an iterative solver
           672 MiB given to the printing process from OS
             0 MiB allocation reported by mallinfo(arena+hblkhd)
        159293 MiB available memory on the node where the printing process lives
------------------
     ethr =  5.54E-06,  avg # of iterations =  2.0

     negative rho (up, down):  1.381E-05 0.000E+00

     total cpu time spent up to now is      141.4 secs

     total energy              =   -2115.80997772 Ry
     estimated scf accuracy    <       0.05719651 Ry

     iteration # 79     ecut=    30.00 Ry     beta= 0.70
     Davidson diagonalization with overlap

---- Real-time Memory Report at c_bands before calling an iterative solver
           672 MiB given to the printing process from OS
             0 MiB allocation reported by mallinfo(arena+hblkhd)
        159298 MiB available memory on the node where the printing process lives
------------------
     ethr =  5.54E-06,  avg # of iterations =  1.0

     negative rho (up, down):  1.681E-05 0.000E+00

     total cpu time spent up to now is      142.6 secs

     total energy              =   -2115.80895242 Ry
     estimated scf accuracy    <       0.02348503 Ry

     iteration # 80     ecut=    30.00 Ry     beta= 0.70
     Davidson diagonalization with overlap

---- Real-time Memory Report at c_bands before calling an iterative solver
           672 MiB given to the printing process from OS
             0 MiB allocation reported by mallinfo(arena+hblkhd)
        159298 MiB available memory on the node where the printing process lives
------------------
     ethr =  5.54E-06,  avg # of iterations =  1.0

     negative rho (up, down):  2.067E-05 0.000E+00

     total cpu time spent up to now is      143.8 secs

     total energy              =   -2115.80732999 Ry
     estimated scf accuracy    <       0.02372413 Ry

     iteration # 81     ecut=    30.00 Ry     beta= 0.70
     Davidson diagonalization with overlap

---- Real-time Memory Report at c_bands before calling an iterative solver
           672 MiB given to the printing process from OS
             0 MiB allocation reported by mallinfo(arena+hblkhd)
        159300 MiB available memory on the node where the printing process lives
------------------
     ethr =  5.54E-06,  avg # of iterations =  1.0

     negative rho (up, down):  2.426E-05 0.000E+00

     total cpu time spent up to now is      147.0 secs

     total energy              =   -2115.80569090 Ry
     estimated scf accuracy    <       0.02020570 Ry

     iteration # 82     ecut=    30.00 Ry     beta= 0.70
     Davidson diagonalization with overlap

---- Real-time Memory Report at c_bands before calling an iterative solver
           672 MiB given to the printing process from OS
             0 MiB allocation reported by mallinfo(arena+hblkhd)
        159302 MiB available memory on the node where the printing process lives
------------------
     ethr =  5.54E-06,  avg # of iterations =  1.0

     negative rho (up, down):  2.664E-05 0.000E+00

     total cpu time spent up to now is      149.1 secs

     total energy              =   -2115.80490332 Ry
     estimated scf accuracy    <       0.01982131 Ry

     iteration # 83     ecut=    30.00 Ry     beta= 0.70
     Davidson diagonalization with overlap

---- Real-time Memory Report at c_bands before calling an iterative solver
           672 MiB given to the printing process from OS
             0 MiB allocation reported by mallinfo(arena+hblkhd)
        159302 MiB available memory on the node where the printing process lives
------------------
     ethr =  5.54E-06,  avg # of iterations =  1.0

     negative rho (up, down):  2.279E-05 0.000E+00

     total cpu time spent up to now is      150.3 secs

     total energy              =   -2115.81165780 Ry
     estimated scf accuracy    <       0.02046215 Ry

     iteration # 84     ecut=    30.00 Ry     beta= 0.70
     Davidson diagonalization with overlap

---- Real-time Memory Report at c_bands before calling an iterative solver
           672 MiB given to the printing process from OS
             0 MiB allocation reported by mallinfo(arena+hblkhd)
        159302 MiB available memory on the node where the printing process lives
------------------
     ethr =  5.54E-06,  avg # of iterations =  2.0

     negative rho (up, down):  3.189E-05 0.000E+00

     total cpu time spent up to now is      151.6 secs

     total energy              =   -2115.80851719 Ry
     estimated scf accuracy    <       0.12302493 Ry

     iteration # 85     ecut=    30.00 Ry     beta= 0.70
     Davidson diagonalization with overlap

---- Real-time Memory Report at c_bands before calling an iterative solver
           672 MiB given to the printing process from OS
             0 MiB allocation reported by mallinfo(arena+hblkhd)
        159303 MiB available memory on the node where the printing process lives
------------------
     ethr =  5.54E-06,  avg # of iterations =  2.0

     negative rho (up, down):  3.491E-05 0.000E+00

     total cpu time spent up to now is      152.9 secs

     total energy              =   -2115.80886580 Ry
     estimated scf accuracy    <       0.04571829 Ry

     iteration # 86     ecut=    30.00 Ry     beta= 0.70
     Davidson diagonalization with overlap

---- Real-time Memory Report at c_bands before calling an iterative solver
           672 MiB given to the printing process from OS
             0 MiB allocation reported by mallinfo(arena+hblkhd)
        159303 MiB available memory on the node where the printing process lives
------------------
     ethr =  5.54E-06,  avg # of iterations =  2.0

     negative rho (up, down):  3.459E-05 0.000E+00

     total cpu time spent up to now is      154.1 secs

     total energy              =   -2115.81029319 Ry
     estimated scf accuracy    <       0.07325932 Ry

     iteration # 87     ecut=    30.00 Ry     beta= 0.70
     Davidson diagonalization with overlap

---- Real-time Memory Report at c_bands before calling an iterative solver
           672 MiB given to the printing process from OS
             0 MiB allocation reported by mallinfo(arena+hblkhd)
        159303 MiB available memory on the node where the printing process lives
------------------
     ethr =  5.54E-06,  avg # of iterations =  1.0

     negative rho (up, down):  3.962E-05 0.000E+00

     total cpu time spent up to now is      155.3 secs

     total energy              =   -2115.80744331 Ry
     estimated scf accuracy    <       0.10616943 Ry

     iteration # 88     ecut=    30.00 Ry     beta= 0.70
     Davidson diagonalization with overlap

---- Real-time Memory Report at c_bands before calling an iterative solver
           672 MiB given to the printing process from OS
             0 MiB allocation reported by mallinfo(arena+hblkhd)
        159303 MiB available memory on the node where the printing process lives
------------------
     ethr =  5.54E-06,  avg # of iterations =  1.0

     negative rho (up, down):  3.820E-05 0.000E+00

     total cpu time spent up to now is      156.5 secs

     total energy              =   -2115.80891657 Ry
     estimated scf accuracy    <       0.07589568 Ry

     iteration # 89     ecut=    30.00 Ry     beta= 0.70
     Davidson diagonalization with overlap

---- Real-time Memory Report at c_bands before calling an iterative solver
           672 MiB given to the printing process from OS
             0 MiB allocation reported by mallinfo(arena+hblkhd)
        159302 MiB available memory on the node where the printing process lives
------------------
     ethr =  5.54E-06,  avg # of iterations =  2.0

     negative rho (up, down):  2.509E-05 0.000E+00

     total cpu time spent up to now is      157.9 secs

     total energy              =   -2115.80212459 Ry
     estimated scf accuracy    <       0.16926576 Ry

     iteration # 90     ecut=    30.00 Ry     beta= 0.70
     Davidson diagonalization with overlap

---- Real-time Memory Report at c_bands before calling an iterative solver
           672 MiB given to the printing process from OS
             0 MiB allocation reported by mallinfo(arena+hblkhd)
        159304 MiB available memory on the node where the printing process lives
------------------
     ethr =  5.54E-06,  avg # of iterations =  3.0

     negative rho (up, down):  2.924E-05 0.000E+00

     total cpu time spent up to now is      159.3 secs

     total energy              =   -2115.80925616 Ry
     estimated scf accuracy    <       0.03844558 Ry

     iteration # 91     ecut=    30.00 Ry     beta= 0.70
     Davidson diagonalization with overlap

---- Real-time Memory Report at c_bands before calling an iterative solver
           672 MiB given to the printing process from OS
             0 MiB allocation reported by mallinfo(arena+hblkhd)
        159303 MiB available memory on the node where the printing process lives
------------------
     ethr =  5.54E-06,  avg # of iterations =  2.0

     negative rho (up, down):  3.439E-05 0.000E+00

     total cpu time spent up to now is      160.7 secs

     total energy              =   -2115.81157152 Ry
     estimated scf accuracy    <       0.04263038 Ry

     iteration # 92     ecut=    30.00 Ry     beta= 0.70
     Davidson diagonalization with overlap

---- Real-time Memory Report at c_bands before calling an iterative solver
           672 MiB given to the printing process from OS
             0 MiB allocation reported by mallinfo(arena+hblkhd)
        159297 MiB available memory on the node where the printing process lives
------------------
     ethr =  5.54E-06,  avg # of iterations =  2.0

     negative rho (up, down):  2.941E-05 0.000E+00

     total cpu time spent up to now is      161.9 secs

     total energy              =   -2115.81223818 Ry
     estimated scf accuracy    <       0.03980352 Ry

     iteration # 93     ecut=    30.00 Ry     beta= 0.70
     Davidson diagonalization with overlap

---- Real-time Memory Report at c_bands before calling an iterative solver
           672 MiB given to the printing process from OS
             0 MiB allocation reported by mallinfo(arena+hblkhd)
        159298 MiB available memory on the node where the printing process lives
------------------
     ethr =  5.54E-06,  avg # of iterations =  2.0

     negative rho (up, down):  1.991E-05 0.000E+00

     total cpu time spent up to now is      163.2 secs

     total energy              =   -2115.80927993 Ry
     estimated scf accuracy    <       0.20814772 Ry

     iteration # 94     ecut=    30.00 Ry     beta= 0.70
     Davidson diagonalization with overlap

---- Real-time Memory Report at c_bands before calling an iterative solver
           672 MiB given to the printing process from OS
             0 MiB allocation reported by mallinfo(arena+hblkhd)
        159298 MiB available memory on the node where the printing process lives
------------------
     ethr =  5.54E-06,  avg # of iterations =  2.0

     negative rho (up, down):  1.908E-05 0.000E+00

     total cpu time spent up to now is      164.5 secs

     total energy              =   -2115.81028372 Ry
     estimated scf accuracy    <       0.06829988 Ry

     iteration # 95     ecut=    30.00 Ry     beta= 0.70
     Davidson diagonalization with overlap

---- Real-time Memory Report at c_bands before calling an iterative solver
           672 MiB given to the printing process from OS
             0 MiB allocation reported by mallinfo(arena+hblkhd)
        159298 MiB available memory on the node where the printing process lives
------------------
     ethr =  5.54E-06,  avg # of iterations =  2.0

     negative rho (up, down):  2.628E-05 0.000E+00

     total cpu time spent up to now is      165.8 secs

     total energy              =   -2115.80333260 Ry
     estimated scf accuracy    <       0.37229492 Ry

     iteration # 96     ecut=    30.00 Ry     beta= 0.70
     Davidson diagonalization with overlap

---- Real-time Memory Report at c_bands before calling an iterative solver
           672 MiB given to the printing process from OS
             0 MiB allocation reported by mallinfo(arena+hblkhd)
        159300 MiB available memory on the node where the printing process lives
------------------
     ethr =  5.54E-06,  avg # of iterations =  2.0

     negative rho (up, down):  2.593E-05 0.000E+00

     total cpu time spent up to now is      167.0 secs

     total energy              =   -2115.80838797 Ry
     estimated scf accuracy    <       0.08887941 Ry

     iteration # 97     ecut=    30.00 Ry     beta= 0.70
     Davidson diagonalization with overlap

---- Real-time Memory Report at c_bands before calling an iterative solver
           672 MiB given to the printing process from OS
             0 MiB allocation reported by mallinfo(arena+hblkhd)
        159299 MiB available memory on the node where the printing process lives
------------------
     ethr =  5.54E-06,  avg # of iterations =  1.0

     negative rho (up, down):  2.018E-05 0.000E+00

     total cpu time spent up to now is      168.2 secs

     total energy              =   -2115.80937331 Ry
     estimated scf accuracy    <       0.06154826 Ry

     iteration # 98     ecut=    30.00 Ry     beta= 0.70
     Davidson diagonalization with overlap

---- Real-time Memory Report at c_bands before calling an iterative solver
           672 MiB given to the printing process from OS
             0 MiB allocation reported by mallinfo(arena+hblkhd)
        159309 MiB available memory on the node where the printing process lives
------------------
     ethr =  5.54E-06,  avg # of iterations =  2.0

     negative rho (up, down):  2.231E-05 0.000E+00

     total cpu time spent up to now is      169.5 secs

     total energy              =   -2115.81097920 Ry
     estimated scf accuracy    <       0.22231443 Ry

     iteration # 99     ecut=    30.00 Ry     beta= 0.70
     Davidson diagonalization with overlap

---- Real-time Memory Report at c_bands before calling an iterative solver
           672 MiB given to the printing process from OS
             0 MiB allocation reported by mallinfo(arena+hblkhd)
        159309 MiB available memory on the node where the printing process lives
------------------
     ethr =  5.54E-06,  avg # of iterations =  2.0

     negative rho (up, down):  4.018E-05 0.000E+00

     total cpu time spent up to now is      170.8 secs

     total energy              =   -2115.80221972 Ry
     estimated scf accuracy    <       0.21935422 Ry

     iteration #100     ecut=    30.00 Ry     beta= 0.70
     Davidson diagonalization with overlap

---- Real-time Memory Report at c_bands before calling an iterative solver
           672 MiB given to the printing process from OS
             0 MiB allocation reported by mallinfo(arena+hblkhd)
        159306 MiB available memory on the node where the printing process lives
------------------
     ethr =  5.54E-06,  avg # of iterations =  2.0

     negative rho (up, down):  4.698E-05 0.000E+00

     total cpu time spent up to now is      172.0 secs

     total energy              =   -2115.79859775 Ry
     estimated scf accuracy    <       0.19379882 Ry

     End of self-consistent calculation

     convergence NOT achieved after 100 iterations: stopping

     Writing config to output data dir new_calculations/myprefix.save/
     Message from routine punch:
     wavefunctions written to file
 
     init_run     :    268.07s CPU     12.53s WALL (       1 calls)
     electrons    :   4686.97s CPU    159.40s WALL (       1 calls)

     Called by init_run:
     wfcinit      :    119.65s CPU      4.39s WALL (       1 calls)
     wfcinit:atom :      0.03s CPU      0.00s WALL (       1 calls)
     wfcinit:wfcr :    119.31s CPU      4.38s WALL (       1 calls)
     potinit      :     48.19s CPU      1.75s WALL (       1 calls)
     hinit0       :     89.59s CPU      5.97s WALL (       1 calls)

     Called by electrons:
     c_bands      :   2221.24s CPU     72.32s WALL (     100 calls)
     sum_band     :    766.55s CPU     30.18s WALL (     100 calls)
     v_of_rho     :     72.12s CPU      2.41s WALL (     101 calls)
     v_h          :      6.07s CPU      0.20s WALL (     101 calls)
     v_xc         :     65.81s CPU      2.20s WALL (     101 calls)
     newd         :    320.85s CPU     11.00s WALL (     101 calls)
     PAW_pot      :   1280.51s CPU     42.60s WALL (     101 calls)
     mix_rho      :     23.44s CPU      0.77s WALL (     100 calls)

     Called by c_bands:
     init_us_2    :      2.77s CPU      0.10s WALL (     201 calls)
     init_us_2:cp :      2.48s CPU      0.09s WALL (     201 calls)
     regterg      :   2207.67s CPU     71.87s WALL (     100 calls)

     Called by sum_band:
     sum_band:wei :      0.34s CPU      0.01s WALL (     100 calls)
     sum_band:loo :    480.30s CPU     15.63s WALL (     100 calls)
     sum_band:buf :      0.07s CPU      0.00s WALL (     100 calls)
     sum_band:ini :      1.45s CPU      0.05s WALL (     100 calls)
     sum_band:cal :      1.72s CPU      0.06s WALL (     100 calls)
     sum_band:bec :      0.88s CPU      0.03s WALL (     100 calls)
     addusdens    :    276.21s CPU     14.21s WALL (     100 calls)
     addusd:skk   :      3.84s CPU      0.22s WALL (     400 calls)
     addusd:dgemm :     24.69s CPU      5.76s WALL (     400 calls)
     addusd:qvan2 :    233.72s CPU      7.60s WALL (     400 calls)

     Called by *egterg:
     rdiaghg      :     63.26s CPU      2.12s WALL (     284 calls)
     regterg:over :     11.70s CPU      0.39s WALL (     184 calls)
     regterg:upda :      3.96s CPU      0.13s WALL (     184 calls)
     regterg:last :      8.33s CPU      0.28s WALL (     153 calls)
     h_psi        :   2202.16s CPU     72.06s WALL (     285 calls)
     s_psi        :      2.06s CPU      0.07s WALL (     285 calls)
     g_psi        :      0.35s CPU      0.01s WALL (     184 calls)

     Called by h_psi:
     h_psi:calbec :     10.80s CPU      0.36s WALL (     285 calls)
     vloc_psi     :   2186.64s CPU     71.54s WALL (     285 calls)
     add_vuspsi   :      2.65s CPU      0.09s WALL (     285 calls)

     General routines
     calbec       :     11.97s CPU      0.40s WALL (     385 calls)
     fft          :     83.01s CPU      3.02s WALL (    1111 calls)
     ffts         :     32.36s CPU      1.16s WALL (     201 calls)
     fftw         :   2492.08s CPU     81.38s WALL (   22736 calls)
     interpolate  :     36.80s CPU      1.31s WALL (     101 calls)
     davcio       :      0.00s CPU      0.04s WALL (      19 calls)
 
     Parallel routines

     PAW routines
     PAW_pot      :   1280.51s CPU     42.60s WALL (     101 calls)
 
     PWSCF        :      1h22m CPU   3m 0.32s WALL

 
   This run was terminated on:  17:37: 6  20May2023            

=------------------------------------------------------------------------------=
   JOB DONE.
=------------------------------------------------------------------------------=
