
     Program PWSCF v.7.0 starts on 21May2023 at  1:52:47 

     This program is part of the open-source Quantum ESPRESSO suite
     for quantum simulation of materials; please cite
         "P. Giannozzi et al., J. Phys.:Condens. Matter 21 395502 (2009);
         "P. Giannozzi et al., J. Phys.:Condens. Matter 29 465901 (2017);
         "P. Giannozzi et al., J. Chem. Phys. 152 154105 (2020);
          URL http://www.quantum-espresso.org", 
     in publications or presentations arising from this work. More details at
     http://www.quantum-espresso.org/quote

     Parallel version (MPI & OpenMP), running on      32 processor cores
     Number of MPI processes:                 1
     Threads/MPI process:                    32

     MPI processes distributed on     1 nodes
     78818 MiB available memory on the printing compute node when the environment starts
 
     Reading input from espresso_13818.pwi
Warning: card &CELL ignored
Warning: card / ignored

     Current dimensions of program PWSCF are:
     Max number of different atomic species (ntypx) = 10
     Max number of k-points (npk) =  40000
     Max angular momentum in pseudopotentials (lmaxx) =  4
     file Nb.pbe-spn-kjpaw_psl.0.3.0.UPF: wavefunction(s)  4S 4P renormalized
     file O.pbe-n-kjpaw_psl.0.1.UPF: wavefunction(s)  2P renormalized

     gamma-point specific algorithms are used

     Subspace diagonalization in iterative solution of the eigenvalue problem:
     a serial algorithm will be used

 
     G-vector sticks info
     --------------------
     sticks:   dense  smooth     PW     G-vecs:    dense   smooth      PW
     Sum        2109    1051    261               103055    36383    4525
 
     Using Slab Decomposition
 


     bravais-lattice index     =            0
     lattice parameter (alat)  =      10.4535  a.u.
     unit-cell volume          =    1642.2544 (a.u.)^3
     number of atoms/cell      =           20
     number of atomic types    =            5
     number of electrons       =       162.00
     number of Kohn-Sham states=           97
     kinetic-energy cutoff     =      30.0000  Ry
     charge density cutoff     =     240.0000  Ry
     scf convergence threshold =      1.0E-06
     mixing beta               =       0.7000
     number of iterations used =            8  plain     mixing
     Exchange-correlation= SLA  PW   PBX  PBC
                           (   1   4   3   4   0   0   0)

     celldm(1)=  10.453530  celldm(2)=   0.000000  celldm(3)=   0.000000
     celldm(4)=   0.000000  celldm(5)=   0.000000  celldm(6)=   0.000000

     crystal axes: (cart. coord. in units of alat)
               a(1) = (   1.000000   0.000000   0.000000 )  
               a(2) = (   0.000614   1.010300   0.000000 )  
               a(3) = (   0.000709   0.002126   1.422988 )  

     reciprocal axes: (cart. coord. in units 2 pi/alat)
               b(1) = (  1.000000 -0.000608 -0.000497 )  
               b(2) = (  0.000000  0.989805 -0.001478 )  
               b(3) = (  0.000000  0.000000  0.702747 )  


     PseudoPot. # 1 for Na read from file:
     /home/pragov/projects/rrg-bengioy-ad/pragov/crystal_structure_design/SSSP/na_pbe_v1.5.uspp.F.UPF
     MD5 check sum: 44600605ef58000f06b90626533354dc
     Pseudo is Ultrasoft, Zval =  9.0
     Generated by new atomic code, or converted to UPF format
     Using radial grid of  819 points,  5 beta functions with: 
                l(1) =   0
                l(2) =   0
                l(3) =   1
                l(4) =   1
                l(5) =   2
     Q(r) pseudized with  8 coefficients,  rinner =    1.250   1.250   1.250
                                                       1.250   1.250

     PseudoPot. # 2 for Pr read from file:
     /home/pragov/projects/rrg-bengioy-ad/pragov/crystal_structure_design/SSSP/Pr.GGA-PBE-paw-v1.0.UPF
     MD5 check sum: b5e1e58e76df433569641143f671cc27
     Pseudo is Projector augmented-wave + core cor, Zval = 13.0
     Generated using ATOMPAW code
     Shape of augmentation charge: BESSEL
     Using radial grid of 1103 points,  8 beta functions with: 
                l(1) =   0
                l(2) =   0
                l(3) =   1
                l(4) =   1
                l(5) =   2
                l(6) =   2
                l(7) =   3
                l(8) =   3
     Q(r) pseudized with 0 coefficients 


     PseudoPot. # 3 for Ti read from file:
     /home/pragov/projects/rrg-bengioy-ad/pragov/crystal_structure_design/SSSP/ti_pbe_v1.4.uspp.F.UPF
     MD5 check sum: 88a00a6731bd790ddea75d31a80cb452
     Pseudo is Ultrasoft + core correction, Zval = 12.0
     Generated by new atomic code, or converted to UPF format
     Using radial grid of  851 points,  6 beta functions with: 
                l(1) =   0
                l(2) =   0
                l(3) =   1
                l(4) =   1
                l(5) =   2
                l(6) =   2
     Q(r) pseudized with  6 coefficients,  rinner =    1.000   1.000   1.000
                                                       1.000   1.000

     PseudoPot. # 4 for Nb read from file:
     /home/pragov/projects/rrg-bengioy-ad/pragov/crystal_structure_design/SSSP/Nb.pbe-spn-kjpaw_psl.0.3.0.UPF
     MD5 check sum: 411d72ad547312f8017e2943ceca08cc
     Pseudo is Projector augmented-wave + core cor, Zval = 13.0
     Generated using "atomic" code by A. Dal Corso  v.5.0.99 svn rev. 10869
     Shape of augmentation charge: PSQ
     Using radial grid of 1227 points,  6 beta functions with: 
                l(1) =   0
                l(2) =   0
                l(3) =   1
                l(4) =   1
                l(5) =   2
                l(6) =   2
     Q(r) pseudized with 0 coefficients 


     PseudoPot. # 5 for O  read from file:
     /home/pragov/projects/rrg-bengioy-ad/pragov/crystal_structure_design/SSSP/O.pbe-n-kjpaw_psl.0.1.UPF
     MD5 check sum: 0234752ac141de4415c5fc33072bef88
     Pseudo is Projector augmented-wave + core cor, Zval =  6.0
     Generated using "atomic" code by A. Dal Corso  v.5.0.99 svn rev. 10869
     Shape of augmentation charge: BESSEL
     Using radial grid of 1095 points,  4 beta functions with: 
                l(1) =   0
                l(2) =   0
                l(3) =   1
                l(4) =   1
     Q(r) pseudized with 0 coefficients 


     atomic species   valence    mass     pseudopotential
        Na             9.00    22.98977     Na( 1.00)
        Pr            13.00   140.90766     Pr( 1.00)
        Ti            12.00    47.86700     Ti( 1.00)
        Nb            13.00    92.90637     Nb( 1.00)
        O              6.00    15.99900     O ( 1.00)

     No symmetry found


                                    s                        frac. trans.

      isym =  1     identity                                     

 cryst.   s( 1) = (     1          0          0      )
                  (     0          1          0      )
                  (     0          0          1      )

 cart.    s( 1) = (  1.0000000 -0.0000000 -0.0000000 )
                  (  0.0000000  1.0000000 -0.0000000 )
                  (  0.0000000  0.0000000  1.0000000 )


   Cartesian axes

     site n.     atom                  positions (alat units)
         1           Na  tau(   1) = (   0.4965274   0.5201848   1.0664028  )
         2           Na  tau(   2) = (   0.0040195   0.0150409   1.0669891  )
         3           Na  tau(   3) = (   0.5055062   0.4838987   0.3561042  )
         4           Pr  tau(   4) = (   0.9971002   0.9709930   0.3557641  )
         5           Ti  tau(   5) = (   0.4996989   0.9954291   0.0074010  )
         6           Ti  tau(   6) = (   0.0060147   0.4903608   0.7052214  )
         7           Nb  tau(   7) = (   0.5000793   1.0039594   0.7299444  )
         8           Nb  tau(   8) = (   0.0059308   0.4923429   1.4031671  )
         9           O   tau(   9) = (   0.5630246   0.9994573   1.0720492  )
        10           O   tau(  10) = (   0.9305584   0.5018364   1.0627756  )
        11           O   tau(  11) = (   0.4302401   0.0174871   0.3508989  )
        12           O   tau(  12) = (   0.0638107   0.5221817   0.3605937  )
        13           O   tau(  13) = (   0.2143645   0.8058452   1.3911258  )
        14           O   tau(  14) = (   0.2784109   0.2928697   0.7541480  )
        15           O   tau(  15) = (   0.7883328   0.2254048   0.6552674  )
        16           O   tau(  16) = (   0.7241023   0.7437396   0.0624692  )
        17           O   tau(  17) = (   0.7832168   0.2212871   0.0569096  )
        18           O   tau(  18) = (   0.7282238   0.7416695   0.6495200  )
        19           O   tau(  19) = (   0.2112698   0.8004060   0.7447378  )
        20           O   tau(  20) = (   0.2834116   0.2901570   1.3783887  )

   Crystallographic axes

     site n.     atom                  positions (cryst. coord.)
         1           Na  tau(   1) = (  0.4956810  0.5133050  0.7494110  )
         2           Na  tau(   2) = (  0.0034800  0.0133100  0.7498230  )
         3           Na  tau(   3) = (  0.5050350  0.4784390  0.2502510  )
         4           Pr  tau(   4) = (  0.9963330  0.9605680  0.2500120  )
         5           Ti  tau(   5) = (  0.4990900  0.9852700  0.0052010  )
         6           Ti  tau(   6) = (  0.0053660  0.4843190  0.4955920  )
         7           Nb  tau(   7) = (  0.4991060  0.9926450  0.5129660  )
         8           Nb  tau(   8) = (  0.0049340  0.4852490  0.9860710  )
         9           O   tau(   9) = (  0.5618840  0.9876830  0.7533790  )
        10           O   tau(  10) = (  0.9297250  0.4951490  0.7468620  )
        11           O   tau(  11) = (  0.4300550  0.0167900  0.2465930  )
        12           O   tau(  12) = (  0.0633140  0.5163250  0.2534060  )
        13           O   tau(  13) = (  0.2131830  0.7955730  0.9776090  )
        14           O   tau(  14) = (  0.2778580  0.2887690  0.5299750  )
        15           O   tau(  15) = (  0.7878700  0.2221380  0.4604870  )
        16           O   tau(  16) = (  0.7236190  0.7360650  0.0439000  )
        17           O   tau(  17) = (  0.7830540  0.2189470  0.0399930  )
        18           O   tau(  18) = (  0.7274500  0.7331480  0.4564480  )
        19           O   tau(  19) = (  0.2104130  0.7911450  0.5233620  )
        20           O   tau(  20) = (  0.2825500  0.2851610  0.9686580  )

     number of k points=     1  Methfessel-Paxton smearing, width (Ry)=  0.0010
                       cart. coord. in units 2pi/alat
        k(    1) = (   0.0000000   0.0000000   0.0000000), wk =   2.0000000

                       cryst. coord.
        k(    1) = (   0.0000000   0.0000000   0.0000000), wk =   2.0000000

     Dense  grid:    51528 G-vectors     FFT dimensions: (  54,  54,  75)

     Smooth grid:    18192 G-vectors     FFT dimensions: (  40,  40,  54)

     Dynamical RAM for                 wfc:       3.37 MB

     Dynamical RAM for     wfc (w. buffer):       3.37 MB

     Dynamical RAM for           str. fact:       3.93 MB

     Dynamical RAM for           local pot:       0.00 MB

     Dynamical RAM for          nlocal pot:       8.31 MB

     Dynamical RAM for                qrad:      14.93 MB

     Dynamical RAM for          rho,v,vnew:       7.36 MB

     Dynamical RAM for               rhoin:       2.45 MB

     Dynamical RAM for            rho*nmix:      12.58 MB

     Dynamical RAM for           G-vectors:       3.09 MB

     Dynamical RAM for          h,s,v(r/c):       0.86 MB

     Dynamical RAM for          <psi|beta>:       0.18 MB

     Dynamical RAM for                 psi:       6.74 MB

     Dynamical RAM for                hpsi:       6.74 MB

     Dynamical RAM for                spsi:       6.74 MB

     Dynamical RAM for      wfcinit/wfcrot:       9.80 MB

     Dynamical RAM for           addusdens:     445.81 MB

     Dynamical RAM for          addusforce:     463.64 MB

     Dynamical RAM for         addusstress:     457.60 MB

     Estimated static dynamical RAM per process >      56.51 MB

     Estimated max dynamical RAM per process >     532.73 MB

     Check: negative core charge=   -0.000017

     Initial potential from superposition of free atoms

     starting charge     159.9694, renormalised to     162.0000

     negative rho (up, down):  3.172E-03 0.000E+00
     Starting wfcs are  135 randomized atomic wfcs
     Checking if some PAW data can be deallocated... 

     total cpu time spent up to now is       16.0 secs

     Self-consistent Calculation

     iteration #  1     ecut=    30.00 Ry     beta= 0.70
     Davidson diagonalization with overlap

---- Real-time Memory Report at c_bands before calling an iterative solver
           781 MiB given to the printing process from OS
             0 MiB allocation reported by mallinfo(arena+hblkhd)
         78501 MiB available memory on the node where the printing process lives
------------------
     ethr =  1.00E-02,  avg # of iterations =  2.0

     negative rho (up, down):  1.471E-03 0.000E+00

     total cpu time spent up to now is       25.9 secs

     total energy              =   -2194.82076780 Ry
     estimated scf accuracy    <      11.94693962 Ry

     iteration #  2     ecut=    30.00 Ry     beta= 0.70
     Davidson diagonalization with overlap

---- Real-time Memory Report at c_bands before calling an iterative solver
          1004 MiB given to the printing process from OS
             0 MiB allocation reported by mallinfo(arena+hblkhd)
         78432 MiB available memory on the node where the printing process lives
------------------
     ethr =  7.37E-03,  avg # of iterations =  6.0

     negative rho (up, down):  1.852E-03 0.000E+00

     total cpu time spent up to now is       34.0 secs

     total energy              =   -2174.84310427 Ry
     estimated scf accuracy    <     346.65817084 Ry

     iteration #  3     ecut=    30.00 Ry     beta= 0.70
     Davidson diagonalization with overlap

---- Real-time Memory Report at c_bands before calling an iterative solver
          1007 MiB given to the printing process from OS
             0 MiB allocation reported by mallinfo(arena+hblkhd)
         78432 MiB available memory on the node where the printing process lives
------------------
     ethr =  7.37E-03,  avg # of iterations =  5.0

     negative rho (up, down):  2.301E-03 0.000E+00

     total cpu time spent up to now is       36.2 secs

     total energy              =   -2196.71392245 Ry
     estimated scf accuracy    <      44.18240317 Ry

     iteration #  4     ecut=    30.00 Ry     beta= 0.70
     Davidson diagonalization with overlap

---- Real-time Memory Report at c_bands before calling an iterative solver
          1007 MiB given to the printing process from OS
             0 MiB allocation reported by mallinfo(arena+hblkhd)
         78431 MiB available memory on the node where the printing process lives
------------------
     ethr =  7.37E-03,  avg # of iterations =  5.0

     negative rho (up, down):  2.565E-03 0.000E+00

     total cpu time spent up to now is       38.3 secs

     total energy              =   -2202.53235157 Ry
     estimated scf accuracy    <       4.64430131 Ry

     iteration #  5     ecut=    30.00 Ry     beta= 0.70
     Davidson diagonalization with overlap

---- Real-time Memory Report at c_bands before calling an iterative solver
          1008 MiB given to the printing process from OS
             0 MiB allocation reported by mallinfo(arena+hblkhd)
         78432 MiB available memory on the node where the printing process lives
------------------
     ethr =  2.87E-03,  avg # of iterations =  6.0

     negative rho (up, down):  2.541E-03 0.000E+00

     total cpu time spent up to now is       40.2 secs

     total energy              =   -2202.56626418 Ry
     estimated scf accuracy    <       2.28412628 Ry

     iteration #  6     ecut=    30.00 Ry     beta= 0.70
     Davidson diagonalization with overlap

---- Real-time Memory Report at c_bands before calling an iterative solver
          1009 MiB given to the printing process from OS
             0 MiB allocation reported by mallinfo(arena+hblkhd)
         78434 MiB available memory on the node where the printing process lives
------------------
     ethr =  1.41E-03,  avg # of iterations =  2.0

     negative rho (up, down):  2.499E-03 0.000E+00

     total cpu time spent up to now is       42.1 secs

     total energy              =   -2202.45842300 Ry
     estimated scf accuracy    <       3.28463564 Ry

     iteration #  7     ecut=    30.00 Ry     beta= 0.70
     Davidson diagonalization with overlap

---- Real-time Memory Report at c_bands before calling an iterative solver
          1009 MiB given to the printing process from OS
             0 MiB allocation reported by mallinfo(arena+hblkhd)
         78434 MiB available memory on the node where the printing process lives
------------------
     ethr =  1.41E-03,  avg # of iterations =  1.0

     negative rho (up, down):  2.510E-03 0.000E+00

     total cpu time spent up to now is       43.9 secs

     total energy              =   -2202.61093192 Ry
     estimated scf accuracy    <       0.77073748 Ry

     iteration #  8     ecut=    30.00 Ry     beta= 0.70
     Davidson diagonalization with overlap

---- Real-time Memory Report at c_bands before calling an iterative solver
          1013 MiB given to the printing process from OS
             0 MiB allocation reported by mallinfo(arena+hblkhd)
         78432 MiB available memory on the node where the printing process lives
------------------
     ethr =  4.76E-04,  avg # of iterations =  1.0

     negative rho (up, down):  2.528E-03 0.000E+00

     total cpu time spent up to now is       45.7 secs

     total energy              =   -2202.60923155 Ry
     estimated scf accuracy    <       0.75243425 Ry

     iteration #  9     ecut=    30.00 Ry     beta= 0.70
     Davidson diagonalization with overlap

---- Real-time Memory Report at c_bands before calling an iterative solver
          1013 MiB given to the printing process from OS
             0 MiB allocation reported by mallinfo(arena+hblkhd)
         78433 MiB available memory on the node where the printing process lives
------------------
     ethr =  4.64E-04,  avg # of iterations =  2.0

     negative rho (up, down):  2.570E-03 0.000E+00

     total cpu time spent up to now is       47.5 secs

     total energy              =   -2202.61189755 Ry
     estimated scf accuracy    <       0.75530616 Ry

     iteration # 10     ecut=    30.00 Ry     beta= 0.70
     Davidson diagonalization with overlap

---- Real-time Memory Report at c_bands before calling an iterative solver
          1013 MiB given to the printing process from OS
             0 MiB allocation reported by mallinfo(arena+hblkhd)
         78432 MiB available memory on the node where the printing process lives
------------------
     ethr =  4.64E-04,  avg # of iterations =  1.0

     negative rho (up, down):  2.786E-03 0.000E+00

     total cpu time spent up to now is       49.3 secs

     total energy              =   -2202.51467405 Ry
     estimated scf accuracy    <       0.69990306 Ry

     iteration # 11     ecut=    30.00 Ry     beta= 0.70
     Davidson diagonalization with overlap

---- Real-time Memory Report at c_bands before calling an iterative solver
          1013 MiB given to the printing process from OS
             0 MiB allocation reported by mallinfo(arena+hblkhd)
         78431 MiB available memory on the node where the printing process lives
------------------
     ethr =  4.32E-04,  avg # of iterations =  2.0

     negative rho (up, down):  3.081E-03 0.000E+00

     total cpu time spent up to now is       51.2 secs

     total energy              =   -2202.37893652 Ry
     estimated scf accuracy    <       0.42659206 Ry

     iteration # 12     ecut=    30.00 Ry     beta= 0.70
     Davidson diagonalization with overlap

---- Real-time Memory Report at c_bands before calling an iterative solver
          1013 MiB given to the printing process from OS
             0 MiB allocation reported by mallinfo(arena+hblkhd)
         78431 MiB available memory on the node where the printing process lives
------------------
     ethr =  2.63E-04,  avg # of iterations =  3.0

     negative rho (up, down):  2.909E-03 0.000E+00

     total cpu time spent up to now is       53.1 secs

     total energy              =   -2202.39143016 Ry
     estimated scf accuracy    <       0.32679933 Ry

     iteration # 13     ecut=    30.00 Ry     beta= 0.70
     Davidson diagonalization with overlap

---- Real-time Memory Report at c_bands before calling an iterative solver
          1013 MiB given to the printing process from OS
             0 MiB allocation reported by mallinfo(arena+hblkhd)
         78431 MiB available memory on the node where the printing process lives
------------------
     ethr =  2.02E-04,  avg # of iterations = 18.0

     negative rho (up, down):  3.087E-03 0.000E+00

     total cpu time spent up to now is       55.4 secs

     total energy              =   -2202.28992947 Ry
     estimated scf accuracy    <       2.76597080 Ry

     iteration # 14     ecut=    30.00 Ry     beta= 0.70
     Davidson diagonalization with overlap

---- Real-time Memory Report at c_bands before calling an iterative solver
          1013 MiB given to the printing process from OS
             0 MiB allocation reported by mallinfo(arena+hblkhd)
         78431 MiB available memory on the node where the printing process lives
------------------
     ethr =  2.02E-04,  avg # of iterations =  3.0

     negative rho (up, down):  3.003E-03 0.000E+00

     total cpu time spent up to now is       57.3 secs

     total energy              =   -2202.45554619 Ry
     estimated scf accuracy    <       0.22645284 Ry

     iteration # 15     ecut=    30.00 Ry     beta= 0.70
     Davidson diagonalization with overlap

---- Real-time Memory Report at c_bands before calling an iterative solver
          1013 MiB given to the printing process from OS
             0 MiB allocation reported by mallinfo(arena+hblkhd)
         78432 MiB available memory on the node where the printing process lives
------------------
     ethr =  1.40E-04,  avg # of iterations =  2.0

     negative rho (up, down):  3.138E-03 0.000E+00

     total cpu time spent up to now is       59.1 secs

     total energy              =   -2202.45905933 Ry
     estimated scf accuracy    <       0.18598776 Ry

     iteration # 16     ecut=    30.00 Ry     beta= 0.70
     Davidson diagonalization with overlap

---- Real-time Memory Report at c_bands before calling an iterative solver
          1013 MiB given to the printing process from OS
             0 MiB allocation reported by mallinfo(arena+hblkhd)
         78434 MiB available memory on the node where the printing process lives
------------------
     ethr =  1.15E-04,  avg # of iterations =  9.0

     negative rho (up, down):  3.026E-03 0.000E+00

     total cpu time spent up to now is       61.1 secs

     total energy              =   -2202.37707296 Ry
     estimated scf accuracy    <       3.04594008 Ry

     iteration # 17     ecut=    30.00 Ry     beta= 0.70
     Davidson diagonalization with overlap

---- Real-time Memory Report at c_bands before calling an iterative solver
          1013 MiB given to the printing process from OS
             0 MiB allocation reported by mallinfo(arena+hblkhd)
         78434 MiB available memory on the node where the printing process lives
------------------
     ethr =  1.15E-04,  avg # of iterations =  7.0

     negative rho (up, down):  3.026E-03 0.000E+00

     total cpu time spent up to now is       63.1 secs

     total energy              =   -2202.43316868 Ry
     estimated scf accuracy    <       0.30026730 Ry

     iteration # 18     ecut=    30.00 Ry     beta= 0.70
     Davidson diagonalization with overlap

---- Real-time Memory Report at c_bands before calling an iterative solver
          1013 MiB given to the printing process from OS
             0 MiB allocation reported by mallinfo(arena+hblkhd)
         78436 MiB available memory on the node where the printing process lives
------------------
     ethr =  1.15E-04,  avg # of iterations =  2.0

     negative rho (up, down):  3.042E-03 0.000E+00

     total cpu time spent up to now is       64.9 secs

     total energy              =   -2202.44097444 Ry
     estimated scf accuracy    <       0.06728278 Ry

     iteration # 19     ecut=    30.00 Ry     beta= 0.70
     Davidson diagonalization with overlap

---- Real-time Memory Report at c_bands before calling an iterative solver
          1013 MiB given to the printing process from OS
             0 MiB allocation reported by mallinfo(arena+hblkhd)
         78436 MiB available memory on the node where the printing process lives
------------------
     ethr =  4.15E-05,  avg # of iterations =  3.0

     negative rho (up, down):  3.009E-03 0.000E+00

     total cpu time spent up to now is       66.9 secs

     total energy              =   -2202.46084023 Ry
     estimated scf accuracy    <       0.21402782 Ry

     iteration # 20     ecut=    30.00 Ry     beta= 0.70
     Davidson diagonalization with overlap

---- Real-time Memory Report at c_bands before calling an iterative solver
          1013 MiB given to the printing process from OS
             0 MiB allocation reported by mallinfo(arena+hblkhd)
         78435 MiB available memory on the node where the printing process lives
------------------
     ethr =  4.15E-05,  avg # of iterations =  2.0

     negative rho (up, down):  3.013E-03 0.000E+00

     total cpu time spent up to now is       68.7 secs

     total energy              =   -2202.46495229 Ry
     estimated scf accuracy    <       0.10231408 Ry

     iteration # 21     ecut=    30.00 Ry     beta= 0.70
     Davidson diagonalization with overlap

---- Real-time Memory Report at c_bands before calling an iterative solver
          1013 MiB given to the printing process from OS
             0 MiB allocation reported by mallinfo(arena+hblkhd)
         78436 MiB available memory on the node where the printing process lives
------------------
     ethr =  4.15E-05,  avg # of iterations =  2.0

     negative rho (up, down):  3.032E-03 0.000E+00

     total cpu time spent up to now is       70.5 secs

     total energy              =   -2202.46249919 Ry
     estimated scf accuracy    <       0.08708528 Ry

     iteration # 22     ecut=    30.00 Ry     beta= 0.70
     Davidson diagonalization with overlap

---- Real-time Memory Report at c_bands before calling an iterative solver
          1013 MiB given to the printing process from OS
             0 MiB allocation reported by mallinfo(arena+hblkhd)
         78436 MiB available memory on the node where the printing process lives
------------------
     ethr =  4.15E-05,  avg # of iterations =  1.0

     negative rho (up, down):  3.049E-03 0.000E+00

     total cpu time spent up to now is       72.3 secs

     total energy              =   -2202.46572001 Ry
     estimated scf accuracy    <       0.07523468 Ry

     iteration # 23     ecut=    30.00 Ry     beta= 0.70
     Davidson diagonalization with overlap

---- Real-time Memory Report at c_bands before calling an iterative solver
          1013 MiB given to the printing process from OS
             0 MiB allocation reported by mallinfo(arena+hblkhd)
         78437 MiB available memory on the node where the printing process lives
------------------
     ethr =  4.15E-05,  avg # of iterations =  1.0

     negative rho (up, down):  3.032E-03 0.000E+00

     total cpu time spent up to now is       74.1 secs

     total energy              =   -2202.46870245 Ry
     estimated scf accuracy    <       0.06484397 Ry

     iteration # 24     ecut=    30.00 Ry     beta= 0.70
     Davidson diagonalization with overlap

---- Real-time Memory Report at c_bands before calling an iterative solver
          1013 MiB given to the printing process from OS
             0 MiB allocation reported by mallinfo(arena+hblkhd)
         78437 MiB available memory on the node where the printing process lives
------------------
     ethr =  4.00E-05,  avg # of iterations =  1.0

     negative rho (up, down):  3.043E-03 0.000E+00

     total cpu time spent up to now is       75.9 secs

     total energy              =   -2202.46940797 Ry
     estimated scf accuracy    <       0.05540596 Ry

     iteration # 25     ecut=    30.00 Ry     beta= 0.70
     Davidson diagonalization with overlap

---- Real-time Memory Report at c_bands before calling an iterative solver
          1013 MiB given to the printing process from OS
             0 MiB allocation reported by mallinfo(arena+hblkhd)
         78437 MiB available memory on the node where the printing process lives
------------------
     ethr =  3.42E-05,  avg # of iterations =  1.0

     negative rho (up, down):  3.044E-03 0.000E+00

     total cpu time spent up to now is       77.7 secs

     total energy              =   -2202.47290193 Ry
     estimated scf accuracy    <       0.03930363 Ry

     iteration # 26     ecut=    30.00 Ry     beta= 0.70
     Davidson diagonalization with overlap

---- Real-time Memory Report at c_bands before calling an iterative solver
          1013 MiB given to the printing process from OS
             0 MiB allocation reported by mallinfo(arena+hblkhd)
         78437 MiB available memory on the node where the printing process lives
------------------
     ethr =  2.43E-05,  avg # of iterations =  1.0

     negative rho (up, down):  3.051E-03 0.000E+00

     total cpu time spent up to now is       79.4 secs

     total energy              =   -2202.47039750 Ry
     estimated scf accuracy    <       0.05337690 Ry

     iteration # 27     ecut=    30.00 Ry     beta= 0.70
     Davidson diagonalization with overlap

---- Real-time Memory Report at c_bands before calling an iterative solver
          1013 MiB given to the printing process from OS
             0 MiB allocation reported by mallinfo(arena+hblkhd)
         78437 MiB available memory on the node where the printing process lives
------------------
     ethr =  2.43E-05,  avg # of iterations =  1.0

     negative rho (up, down):  3.037E-03 0.000E+00

     total cpu time spent up to now is       81.2 secs

     total energy              =   -2202.47194281 Ry
     estimated scf accuracy    <       0.28678074 Ry

     iteration # 28     ecut=    30.00 Ry     beta= 0.70
     Davidson diagonalization with overlap

---- Real-time Memory Report at c_bands before calling an iterative solver
          1013 MiB given to the printing process from OS
             0 MiB allocation reported by mallinfo(arena+hblkhd)
         78437 MiB available memory on the node where the printing process lives
------------------
     ethr =  2.43E-05,  avg # of iterations =  1.0

     negative rho (up, down):  3.040E-03 0.000E+00

     total cpu time spent up to now is       83.0 secs

     total energy              =   -2202.47377129 Ry
     estimated scf accuracy    <       0.06534226 Ry

     iteration # 29     ecut=    30.00 Ry     beta= 0.70
     Davidson diagonalization with overlap

---- Real-time Memory Report at c_bands before calling an iterative solver
          1013 MiB given to the printing process from OS
             0 MiB allocation reported by mallinfo(arena+hblkhd)
         78438 MiB available memory on the node where the printing process lives
------------------
     ethr =  2.43E-05,  avg # of iterations =  1.0

     negative rho (up, down):  3.038E-03 0.000E+00

     total cpu time spent up to now is       84.8 secs

     total energy              =   -2202.47228301 Ry
     estimated scf accuracy    <       0.03214303 Ry

     iteration # 30     ecut=    30.00 Ry     beta= 0.70
     Davidson diagonalization with overlap

---- Real-time Memory Report at c_bands before calling an iterative solver
          1013 MiB given to the printing process from OS
             0 MiB allocation reported by mallinfo(arena+hblkhd)
         78438 MiB available memory on the node where the printing process lives
------------------
     ethr =  1.98E-05,  avg # of iterations =  1.0

     negative rho (up, down):  3.036E-03 0.000E+00

     total cpu time spent up to now is       86.6 secs

     total energy              =   -2202.47222545 Ry
     estimated scf accuracy    <       0.01343409 Ry

     iteration # 31     ecut=    30.00 Ry     beta= 0.70
     Davidson diagonalization with overlap

---- Real-time Memory Report at c_bands before calling an iterative solver
          1013 MiB given to the printing process from OS
             0 MiB allocation reported by mallinfo(arena+hblkhd)
         78439 MiB available memory on the node where the printing process lives
------------------
     ethr =  8.29E-06,  avg # of iterations =  1.0

     negative rho (up, down):  3.038E-03 0.000E+00

     total cpu time spent up to now is       88.4 secs

     total energy              =   -2202.47204869 Ry
     estimated scf accuracy    <       0.01707359 Ry

     iteration # 32     ecut=    30.00 Ry     beta= 0.70
     Davidson diagonalization with overlap

---- Real-time Memory Report at c_bands before calling an iterative solver
          1013 MiB given to the printing process from OS
             0 MiB allocation reported by mallinfo(arena+hblkhd)
         78439 MiB available memory on the node where the printing process lives
------------------
     ethr =  8.29E-06,  avg # of iterations =  1.0

     negative rho (up, down):  3.039E-03 0.000E+00

     total cpu time spent up to now is       90.2 secs

     total energy              =   -2202.47179099 Ry
     estimated scf accuracy    <       0.01972800 Ry

     iteration # 33     ecut=    30.00 Ry     beta= 0.70
     Davidson diagonalization with overlap

---- Real-time Memory Report at c_bands before calling an iterative solver
          1013 MiB given to the printing process from OS
             0 MiB allocation reported by mallinfo(arena+hblkhd)
         78438 MiB available memory on the node where the printing process lives
------------------
     ethr =  8.29E-06,  avg # of iterations =  1.0

     negative rho (up, down):  3.042E-03 0.000E+00

     total cpu time spent up to now is       92.0 secs

     total energy              =   -2202.47218794 Ry
     estimated scf accuracy    <       0.00415205 Ry

     iteration # 34     ecut=    30.00 Ry     beta= 0.70
     Davidson diagonalization with overlap

---- Real-time Memory Report at c_bands before calling an iterative solver
          1013 MiB given to the printing process from OS
             0 MiB allocation reported by mallinfo(arena+hblkhd)
         78439 MiB available memory on the node where the printing process lives
------------------
     ethr =  2.56E-06,  avg # of iterations =  3.0

     negative rho (up, down):  3.038E-03 0.000E+00

     total cpu time spent up to now is       93.8 secs

     total energy              =   -2202.47161031 Ry
     estimated scf accuracy    <       0.02812461 Ry

     iteration # 35     ecut=    30.00 Ry     beta= 0.70
     Davidson diagonalization with overlap

---- Real-time Memory Report at c_bands before calling an iterative solver
          1013 MiB given to the printing process from OS
             0 MiB allocation reported by mallinfo(arena+hblkhd)
         78439 MiB available memory on the node where the printing process lives
------------------
     ethr =  2.56E-06,  avg # of iterations =  2.0

     negative rho (up, down):  3.041E-03 0.000E+00

     total cpu time spent up to now is       95.6 secs

     total energy              =   -2202.47190678 Ry
     estimated scf accuracy    <       0.01869592 Ry

     iteration # 36     ecut=    30.00 Ry     beta= 0.70
     Davidson diagonalization with overlap

---- Real-time Memory Report at c_bands before calling an iterative solver
          1013 MiB given to the printing process from OS
             0 MiB allocation reported by mallinfo(arena+hblkhd)
         78438 MiB available memory on the node where the printing process lives
------------------
     ethr =  2.56E-06,  avg # of iterations =  3.0

     negative rho (up, down):  3.036E-03 0.000E+00

     total cpu time spent up to now is       97.4 secs

     total energy              =   -2202.47168001 Ry
     estimated scf accuracy    <       0.04795034 Ry

     iteration # 37     ecut=    30.00 Ry     beta= 0.70
     Davidson diagonalization with overlap

---- Real-time Memory Report at c_bands before calling an iterative solver
          1013 MiB given to the printing process from OS
             0 MiB allocation reported by mallinfo(arena+hblkhd)
         78437 MiB available memory on the node where the printing process lives
------------------
     ethr =  2.56E-06,  avg # of iterations =  2.0

     negative rho (up, down):  3.039E-03 0.000E+00

     total cpu time spent up to now is       99.2 secs

     total energy              =   -2202.47234119 Ry
     estimated scf accuracy    <       0.00644702 Ry

     iteration # 38     ecut=    30.00 Ry     beta= 0.70
     Davidson diagonalization with overlap

---- Real-time Memory Report at c_bands before calling an iterative solver
          1013 MiB given to the printing process from OS
             0 MiB allocation reported by mallinfo(arena+hblkhd)
         78437 MiB available memory on the node where the printing process lives
------------------
     ethr =  2.56E-06,  avg # of iterations =  1.0

     negative rho (up, down):  3.039E-03 0.000E+00

     total cpu time spent up to now is      101.0 secs

     total energy              =   -2202.47253315 Ry
     estimated scf accuracy    <       0.00203306 Ry

     iteration # 39     ecut=    30.00 Ry     beta= 0.70
     Davidson diagonalization with overlap

---- Real-time Memory Report at c_bands before calling an iterative solver
          1013 MiB given to the printing process from OS
             0 MiB allocation reported by mallinfo(arena+hblkhd)
         78438 MiB available memory on the node where the printing process lives
------------------
     ethr =  1.25E-06,  avg # of iterations =  2.0

     negative rho (up, down):  3.039E-03 0.000E+00

     total cpu time spent up to now is      102.8 secs

     total energy              =   -2202.47215780 Ry
     estimated scf accuracy    <       0.02828542 Ry

     iteration # 40     ecut=    30.00 Ry     beta= 0.70
     Davidson diagonalization with overlap

---- Real-time Memory Report at c_bands before calling an iterative solver
          1013 MiB given to the printing process from OS
             0 MiB allocation reported by mallinfo(arena+hblkhd)
         78438 MiB available memory on the node where the printing process lives
------------------
     ethr =  1.25E-06,  avg # of iterations =  1.0

     negative rho (up, down):  3.040E-03 0.000E+00

     total cpu time spent up to now is      104.6 secs

     total energy              =   -2202.47248186 Ry
     estimated scf accuracy    <       0.00339644 Ry

     iteration # 41     ecut=    30.00 Ry     beta= 0.70
     Davidson diagonalization with overlap

---- Real-time Memory Report at c_bands before calling an iterative solver
          1013 MiB given to the printing process from OS
             0 MiB allocation reported by mallinfo(arena+hblkhd)
         78434 MiB available memory on the node where the printing process lives
------------------
     ethr =  1.25E-06,  avg # of iterations =  2.0

     negative rho (up, down):  3.038E-03 0.000E+00

     total cpu time spent up to now is      106.4 secs

     total energy              =   -2202.47254740 Ry
     estimated scf accuracy    <       0.00122219 Ry

     iteration # 42     ecut=    30.00 Ry     beta= 0.70
     Davidson diagonalization with overlap

---- Real-time Memory Report at c_bands before calling an iterative solver
          1013 MiB given to the printing process from OS
             0 MiB allocation reported by mallinfo(arena+hblkhd)
         78433 MiB available memory on the node where the printing process lives
------------------
     ethr =  7.54E-07,  avg # of iterations =  1.0

     negative rho (up, down):  3.041E-03 0.000E+00

     total cpu time spent up to now is      108.2 secs

     total energy              =   -2202.47192240 Ry
     estimated scf accuracy    <       0.03263589 Ry

     iteration # 43     ecut=    30.00 Ry     beta= 0.70
     Davidson diagonalization with overlap

---- Real-time Memory Report at c_bands before calling an iterative solver
          1013 MiB given to the printing process from OS
             0 MiB allocation reported by mallinfo(arena+hblkhd)
         78434 MiB available memory on the node where the printing process lives
------------------
     ethr =  7.54E-07,  avg # of iterations =  2.0

     negative rho (up, down):  3.041E-03 0.000E+00

     total cpu time spent up to now is      110.0 secs

     total energy              =   -2202.47255920 Ry
     estimated scf accuracy    <       0.00249975 Ry

     iteration # 44     ecut=    30.00 Ry     beta= 0.70
     Davidson diagonalization with overlap

---- Real-time Memory Report at c_bands before calling an iterative solver
          1013 MiB given to the printing process from OS
             0 MiB allocation reported by mallinfo(arena+hblkhd)
         78435 MiB available memory on the node where the printing process lives
------------------
     ethr =  7.54E-07,  avg # of iterations =  1.0

     negative rho (up, down):  3.042E-03 0.000E+00

     total cpu time spent up to now is      111.8 secs

     total energy              =   -2202.47238133 Ry
     estimated scf accuracy    <       0.01263985 Ry

     iteration # 45     ecut=    30.00 Ry     beta= 0.70
     Davidson diagonalization with overlap

---- Real-time Memory Report at c_bands before calling an iterative solver
          1013 MiB given to the printing process from OS
             0 MiB allocation reported by mallinfo(arena+hblkhd)
         78436 MiB available memory on the node where the printing process lives
------------------
     ethr =  7.54E-07,  avg # of iterations =  2.0

     negative rho (up, down):  3.041E-03 0.000E+00

     total cpu time spent up to now is      113.6 secs

     total energy              =   -2202.47243413 Ry
     estimated scf accuracy    <       0.01023982 Ry

     iteration # 46     ecut=    30.00 Ry     beta= 0.70
     Davidson diagonalization with overlap

---- Real-time Memory Report at c_bands before calling an iterative solver
          1013 MiB given to the printing process from OS
             0 MiB allocation reported by mallinfo(arena+hblkhd)
         78436 MiB available memory on the node where the printing process lives
------------------
     ethr =  7.54E-07,  avg # of iterations =  1.0

     negative rho (up, down):  3.041E-03 0.000E+00

     total cpu time spent up to now is      115.4 secs

     total energy              =   -2202.47271108 Ry
     estimated scf accuracy    <       0.00081390 Ry

     iteration # 47     ecut=    30.00 Ry     beta= 0.70
     Davidson diagonalization with overlap

---- Real-time Memory Report at c_bands before calling an iterative solver
          1013 MiB given to the printing process from OS
             0 MiB allocation reported by mallinfo(arena+hblkhd)
         78436 MiB available memory on the node where the printing process lives
------------------
     ethr =  5.02E-07,  avg # of iterations =  1.0

     negative rho (up, down):  3.040E-03 0.000E+00

     total cpu time spent up to now is      117.2 secs

     total energy              =   -2202.47262867 Ry
     estimated scf accuracy    <       0.00585364 Ry

     iteration # 48     ecut=    30.00 Ry     beta= 0.70
     Davidson diagonalization with overlap

---- Real-time Memory Report at c_bands before calling an iterative solver
          1013 MiB given to the printing process from OS
             0 MiB allocation reported by mallinfo(arena+hblkhd)
         78436 MiB available memory on the node where the printing process lives
------------------
     ethr =  5.02E-07,  avg # of iterations =  1.0

     negative rho (up, down):  3.041E-03 0.000E+00

     total cpu time spent up to now is      119.0 secs

     total energy              =   -2202.47276991 Ry
     estimated scf accuracy    <       0.00034638 Ry

     iteration # 49     ecut=    30.00 Ry     beta= 0.70
     Davidson diagonalization with overlap

---- Real-time Memory Report at c_bands before calling an iterative solver
          1013 MiB given to the printing process from OS
             0 MiB allocation reported by mallinfo(arena+hblkhd)
         78437 MiB available memory on the node where the printing process lives
------------------
     ethr =  2.14E-07,  avg # of iterations =  1.0

     negative rho (up, down):  3.042E-03 0.000E+00

     total cpu time spent up to now is      120.8 secs

     total energy              =   -2202.47258735 Ry
     estimated scf accuracy    <       0.00773859 Ry

     iteration # 50     ecut=    30.00 Ry     beta= 0.70
     Davidson diagonalization with overlap

---- Real-time Memory Report at c_bands before calling an iterative solver
          1013 MiB given to the printing process from OS
             0 MiB allocation reported by mallinfo(arena+hblkhd)
         78438 MiB available memory on the node where the printing process lives
------------------
     ethr =  2.14E-07,  avg # of iterations =  1.0

     negative rho (up, down):  3.041E-03 0.000E+00

     total cpu time spent up to now is      122.6 secs

     total energy              =   -2202.47230108 Ry
     estimated scf accuracy    <       0.01900604 Ry

     iteration # 51     ecut=    30.00 Ry     beta= 0.70
     Davidson diagonalization with overlap

---- Real-time Memory Report at c_bands before calling an iterative solver
          1013 MiB given to the printing process from OS
             0 MiB allocation reported by mallinfo(arena+hblkhd)
         78438 MiB available memory on the node where the printing process lives
------------------
     ethr =  2.14E-07,  avg # of iterations =  2.0

     negative rho (up, down):  3.041E-03 0.000E+00

     total cpu time spent up to now is      124.4 secs

     total energy              =   -2202.47266502 Ry
     estimated scf accuracy    <       0.00722469 Ry

     iteration # 52     ecut=    30.00 Ry     beta= 0.70
     Davidson diagonalization with overlap

---- Real-time Memory Report at c_bands before calling an iterative solver
          1013 MiB given to the printing process from OS
             0 MiB allocation reported by mallinfo(arena+hblkhd)
         78440 MiB available memory on the node where the printing process lives
------------------
     ethr =  2.14E-07,  avg # of iterations =  1.0

     negative rho (up, down):  3.043E-03 0.000E+00

     total cpu time spent up to now is      126.2 secs

     total energy              =   -2202.47267852 Ry
     estimated scf accuracy    <       0.00421175 Ry

     iteration # 53     ecut=    30.00 Ry     beta= 0.70
     Davidson diagonalization with overlap

---- Real-time Memory Report at c_bands before calling an iterative solver
          1013 MiB given to the printing process from OS
             0 MiB allocation reported by mallinfo(arena+hblkhd)
         78438 MiB available memory on the node where the printing process lives
------------------
     ethr =  2.14E-07,  avg # of iterations =  1.0

     negative rho (up, down):  3.040E-03 0.000E+00

     total cpu time spent up to now is      128.0 secs

     total energy              =   -2202.47277141 Ry
     estimated scf accuracy    <       0.00026903 Ry

     iteration # 54     ecut=    30.00 Ry     beta= 0.70
     Davidson diagonalization with overlap

---- Real-time Memory Report at c_bands before calling an iterative solver
          1013 MiB given to the printing process from OS
             0 MiB allocation reported by mallinfo(arena+hblkhd)
         78438 MiB available memory on the node where the printing process lives
------------------
     ethr =  1.66E-07,  avg # of iterations =  2.0

     negative rho (up, down):  3.043E-03 0.000E+00

     total cpu time spent up to now is      129.8 secs

     total energy              =   -2202.47261036 Ry
     estimated scf accuracy    <       0.01175606 Ry

     iteration # 55     ecut=    30.00 Ry     beta= 0.70
     Davidson diagonalization with overlap

---- Real-time Memory Report at c_bands before calling an iterative solver
          1013 MiB given to the printing process from OS
             0 MiB allocation reported by mallinfo(arena+hblkhd)
         78439 MiB available memory on the node where the printing process lives
------------------
     ethr =  1.66E-07,  avg # of iterations =  2.0

     negative rho (up, down):  3.040E-03 0.000E+00

     total cpu time spent up to now is      131.6 secs

     total energy              =   -2202.47272159 Ry
     estimated scf accuracy    <       0.00382857 Ry

     iteration # 56     ecut=    30.00 Ry     beta= 0.70
     Davidson diagonalization with overlap

---- Real-time Memory Report at c_bands before calling an iterative solver
          1013 MiB given to the printing process from OS
             0 MiB allocation reported by mallinfo(arena+hblkhd)
         78438 MiB available memory on the node where the printing process lives
------------------
     ethr =  1.66E-07,  avg # of iterations =  1.0

     negative rho (up, down):  3.040E-03 0.000E+00

     total cpu time spent up to now is      133.4 secs

     total energy              =   -2202.47257842 Ry
     estimated scf accuracy    <       0.00431870 Ry

     iteration # 57     ecut=    30.00 Ry     beta= 0.70
     Davidson diagonalization with overlap

---- Real-time Memory Report at c_bands before calling an iterative solver
          1013 MiB given to the printing process from OS
             0 MiB allocation reported by mallinfo(arena+hblkhd)
         78440 MiB available memory on the node where the printing process lives
------------------
     ethr =  1.66E-07,  avg # of iterations =  2.0

     negative rho (up, down):  3.043E-03 0.000E+00

     total cpu time spent up to now is      135.2 secs

     total energy              =   -2202.47228402 Ry
     estimated scf accuracy    <       0.04046557 Ry

     iteration # 58     ecut=    30.00 Ry     beta= 0.70
     Davidson diagonalization with overlap

---- Real-time Memory Report at c_bands before calling an iterative solver
          1013 MiB given to the printing process from OS
             0 MiB allocation reported by mallinfo(arena+hblkhd)
         78440 MiB available memory on the node where the printing process lives
------------------
     ethr =  1.66E-07,  avg # of iterations =  1.0

     negative rho (up, down):  3.044E-03 0.000E+00

     total cpu time spent up to now is      137.0 secs

     total energy              =   -2202.47282232 Ry
     estimated scf accuracy    <       0.00018756 Ry

     iteration # 59     ecut=    30.00 Ry     beta= 0.70
     Davidson diagonalization with overlap

---- Real-time Memory Report at c_bands before calling an iterative solver
          1013 MiB given to the printing process from OS
             0 MiB allocation reported by mallinfo(arena+hblkhd)
         78439 MiB available memory on the node where the printing process lives
------------------
     ethr =  1.16E-07,  avg # of iterations =  2.0

     negative rho (up, down):  3.043E-03 0.000E+00

     total cpu time spent up to now is      138.8 secs

     total energy              =   -2202.47273408 Ry
     estimated scf accuracy    <       0.00340249 Ry

     iteration # 60     ecut=    30.00 Ry     beta= 0.70
     Davidson diagonalization with overlap

---- Real-time Memory Report at c_bands before calling an iterative solver
          1013 MiB given to the printing process from OS
             0 MiB allocation reported by mallinfo(arena+hblkhd)
         78440 MiB available memory on the node where the printing process lives
------------------
     ethr =  1.16E-07,  avg # of iterations =  1.0

     negative rho (up, down):  3.044E-03 0.000E+00

     total cpu time spent up to now is      140.6 secs

     total energy              =   -2202.47279454 Ry
     estimated scf accuracy    <       0.00126660 Ry

     iteration # 61     ecut=    30.00 Ry     beta= 0.70
     Davidson diagonalization with overlap

---- Real-time Memory Report at c_bands before calling an iterative solver
          1013 MiB given to the printing process from OS
             0 MiB allocation reported by mallinfo(arena+hblkhd)
         78439 MiB available memory on the node where the printing process lives
------------------
     ethr =  1.16E-07,  avg # of iterations =  1.0

     negative rho (up, down):  3.043E-03 0.000E+00

     total cpu time spent up to now is      142.4 secs

     total energy              =   -2202.47278718 Ry
     estimated scf accuracy    <       0.00143557 Ry

     iteration # 62     ecut=    30.00 Ry     beta= 0.70
     Davidson diagonalization with overlap

---- Real-time Memory Report at c_bands before calling an iterative solver
          1013 MiB given to the printing process from OS
             0 MiB allocation reported by mallinfo(arena+hblkhd)
         78440 MiB available memory on the node where the printing process lives
------------------
     ethr =  1.16E-07,  avg # of iterations =  1.0

     negative rho (up, down):  3.042E-03 0.000E+00

     total cpu time spent up to now is      144.2 secs

     total energy              =   -2202.47283135 Ry
     estimated scf accuracy    <       0.00054903 Ry

     iteration # 63     ecut=    30.00 Ry     beta= 0.70
     Davidson diagonalization with overlap

---- Real-time Memory Report at c_bands before calling an iterative solver
          1013 MiB given to the printing process from OS
             0 MiB allocation reported by mallinfo(arena+hblkhd)
         78440 MiB available memory on the node where the printing process lives
------------------
     ethr =  1.16E-07,  avg # of iterations =  1.0

     negative rho (up, down):  3.043E-03 0.000E+00

     total cpu time spent up to now is      146.0 secs

     total energy              =   -2202.47284782 Ry
     estimated scf accuracy    <       0.00008452 Ry

     iteration # 64     ecut=    30.00 Ry     beta= 0.70
     Davidson diagonalization with overlap

---- Real-time Memory Report at c_bands before calling an iterative solver
          1013 MiB given to the printing process from OS
             0 MiB allocation reported by mallinfo(arena+hblkhd)
         78439 MiB available memory on the node where the printing process lives
------------------
     ethr =  5.22E-08,  avg # of iterations =  1.0

     negative rho (up, down):  3.043E-03 0.000E+00

     total cpu time spent up to now is      147.8 secs

     total energy              =   -2202.47283468 Ry
     estimated scf accuracy    <       0.00066595 Ry

     iteration # 65     ecut=    30.00 Ry     beta= 0.70
     Davidson diagonalization with overlap

---- Real-time Memory Report at c_bands before calling an iterative solver
          1013 MiB given to the printing process from OS
             0 MiB allocation reported by mallinfo(arena+hblkhd)
         78439 MiB available memory on the node where the printing process lives
------------------
     ethr =  5.22E-08,  avg # of iterations =  1.0

     negative rho (up, down):  3.043E-03 0.000E+00

     total cpu time spent up to now is      149.5 secs

     total energy              =   -2202.47281136 Ry
     estimated scf accuracy    <       0.00076273 Ry

     iteration # 66     ecut=    30.00 Ry     beta= 0.70
     Davidson diagonalization with overlap

---- Real-time Memory Report at c_bands before calling an iterative solver
          1013 MiB given to the printing process from OS
             0 MiB allocation reported by mallinfo(arena+hblkhd)
         78440 MiB available memory on the node where the printing process lives
------------------
     ethr =  5.22E-08,  avg # of iterations =  3.0

     negative rho (up, down):  3.041E-03 0.000E+00

     total cpu time spent up to now is      151.5 secs

     total energy              =   -2202.47278287 Ry
     estimated scf accuracy    <       0.00113130 Ry

     iteration # 67     ecut=    30.00 Ry     beta= 0.70
     Davidson diagonalization with overlap

---- Real-time Memory Report at c_bands before calling an iterative solver
          1013 MiB given to the printing process from OS
             0 MiB allocation reported by mallinfo(arena+hblkhd)
         78440 MiB available memory on the node where the printing process lives
------------------
     ethr =  5.22E-08,  avg # of iterations =  2.0

     negative rho (up, down):  3.042E-03 0.000E+00

     total cpu time spent up to now is      153.3 secs

     total energy              =   -2202.47281062 Ry
     estimated scf accuracy    <       0.00215948 Ry

     iteration # 68     ecut=    30.00 Ry     beta= 0.70
     Davidson diagonalization with overlap

---- Real-time Memory Report at c_bands before calling an iterative solver
          1013 MiB given to the printing process from OS
             0 MiB allocation reported by mallinfo(arena+hblkhd)
         78439 MiB available memory on the node where the printing process lives
------------------
     ethr =  5.22E-08,  avg # of iterations =  1.0

     negative rho (up, down):  3.044E-03 0.000E+00

     total cpu time spent up to now is      155.1 secs

     total energy              =   -2202.47285365 Ry
     estimated scf accuracy    <       0.00051093 Ry

     iteration # 69     ecut=    30.00 Ry     beta= 0.70
     Davidson diagonalization with overlap

---- Real-time Memory Report at c_bands before calling an iterative solver
          1013 MiB given to the printing process from OS
             0 MiB allocation reported by mallinfo(arena+hblkhd)
         78440 MiB available memory on the node where the printing process lives
------------------
     ethr =  5.22E-08,  avg # of iterations =  2.0

     negative rho (up, down):  3.043E-03 0.000E+00

     total cpu time spent up to now is      156.9 secs

     total energy              =   -2202.47283947 Ry
     estimated scf accuracy    <       0.00066706 Ry

     iteration # 70     ecut=    30.00 Ry     beta= 0.70
     Davidson diagonalization with overlap

---- Real-time Memory Report at c_bands before calling an iterative solver
          1013 MiB given to the printing process from OS
             0 MiB allocation reported by mallinfo(arena+hblkhd)
         78440 MiB available memory on the node where the printing process lives
------------------
     ethr =  5.22E-08,  avg # of iterations =  1.0

     negative rho (up, down):  3.045E-03 0.000E+00

     total cpu time spent up to now is      158.7 secs

     total energy              =   -2202.47285688 Ry
     estimated scf accuracy    <       0.00004314 Ry

     iteration # 71     ecut=    30.00 Ry     beta= 0.70
     Davidson diagonalization with overlap

---- Real-time Memory Report at c_bands before calling an iterative solver
          1013 MiB given to the printing process from OS
             0 MiB allocation reported by mallinfo(arena+hblkhd)
         78440 MiB available memory on the node where the printing process lives
------------------
     ethr =  2.66E-08,  avg # of iterations =  2.0

     negative rho (up, down):  3.043E-03 0.000E+00

     total cpu time spent up to now is      160.5 secs

     total energy              =   -2202.47285662 Ry
     estimated scf accuracy    <       0.00024939 Ry

     iteration # 72     ecut=    30.00 Ry     beta= 0.70
     Davidson diagonalization with overlap

---- Real-time Memory Report at c_bands before calling an iterative solver
          1013 MiB given to the printing process from OS
             0 MiB allocation reported by mallinfo(arena+hblkhd)
         78440 MiB available memory on the node where the printing process lives
------------------
     ethr =  2.66E-08,  avg # of iterations =  1.0

     negative rho (up, down):  3.043E-03 0.000E+00

     total cpu time spent up to now is      162.3 secs

     total energy              =   -2202.47284512 Ry
     estimated scf accuracy    <       0.00127951 Ry

     iteration # 73     ecut=    30.00 Ry     beta= 0.70
     Davidson diagonalization with overlap

---- Real-time Memory Report at c_bands before calling an iterative solver
          1013 MiB given to the printing process from OS
             0 MiB allocation reported by mallinfo(arena+hblkhd)
         78440 MiB available memory on the node where the printing process lives
------------------
     ethr =  2.66E-08,  avg # of iterations =  1.0

     negative rho (up, down):  3.043E-03 0.000E+00

     total cpu time spent up to now is      164.1 secs

     total energy              =   -2202.47285909 Ry
     estimated scf accuracy    <       0.00014275 Ry

     iteration # 74     ecut=    30.00 Ry     beta= 0.70
     Davidson diagonalization with overlap

---- Real-time Memory Report at c_bands before calling an iterative solver
          1013 MiB given to the printing process from OS
             0 MiB allocation reported by mallinfo(arena+hblkhd)
         78441 MiB available memory on the node where the printing process lives
------------------
     ethr =  2.66E-08,  avg # of iterations =  1.0

     negative rho (up, down):  3.043E-03 0.000E+00

     total cpu time spent up to now is      165.9 secs

     total energy              =   -2202.47284896 Ry
     estimated scf accuracy    <       0.00073052 Ry

     iteration # 75     ecut=    30.00 Ry     beta= 0.70
     Davidson diagonalization with overlap

---- Real-time Memory Report at c_bands before calling an iterative solver
          1013 MiB given to the printing process from OS
             0 MiB allocation reported by mallinfo(arena+hblkhd)
         78440 MiB available memory on the node where the printing process lives
------------------
     ethr =  2.66E-08,  avg # of iterations =  2.0

     negative rho (up, down):  3.043E-03 0.000E+00

     total cpu time spent up to now is      167.7 secs

     total energy              =   -2202.47262953 Ry
     estimated scf accuracy    <       0.00655544 Ry

     iteration # 76     ecut=    30.00 Ry     beta= 0.70
     Davidson diagonalization with overlap

---- Real-time Memory Report at c_bands before calling an iterative solver
          1013 MiB given to the printing process from OS
             0 MiB allocation reported by mallinfo(arena+hblkhd)
         78441 MiB available memory on the node where the printing process lives
------------------
     ethr =  2.66E-08,  avg # of iterations =  2.0

     negative rho (up, down):  3.042E-03 0.000E+00

     total cpu time spent up to now is      169.5 secs

     total energy              =   -2202.47286400 Ry
     estimated scf accuracy    <       0.00004499 Ry

     iteration # 77     ecut=    30.00 Ry     beta= 0.70
     Davidson diagonalization with overlap

---- Real-time Memory Report at c_bands before calling an iterative solver
          1013 MiB given to the printing process from OS
             0 MiB allocation reported by mallinfo(arena+hblkhd)
         78441 MiB available memory on the node where the printing process lives
------------------
     ethr =  2.66E-08,  avg # of iterations =  1.0

     negative rho (up, down):  3.043E-03 0.000E+00

     total cpu time spent up to now is      171.3 secs

     total energy              =   -2202.47286170 Ry
     estimated scf accuracy    <       0.00016096 Ry

     iteration # 78     ecut=    30.00 Ry     beta= 0.70
     Davidson diagonalization with overlap

---- Real-time Memory Report at c_bands before calling an iterative solver
          1013 MiB given to the printing process from OS
             0 MiB allocation reported by mallinfo(arena+hblkhd)
         78441 MiB available memory on the node where the printing process lives
------------------
     ethr =  2.66E-08,  avg # of iterations =  1.0

     negative rho (up, down):  3.043E-03 0.000E+00

     total cpu time spent up to now is      173.1 secs

     total energy              =   -2202.47286729 Ry
     estimated scf accuracy    <       0.00003749 Ry

     iteration # 79     ecut=    30.00 Ry     beta= 0.70
     Davidson diagonalization with overlap

---- Real-time Memory Report at c_bands before calling an iterative solver
          1013 MiB given to the printing process from OS
             0 MiB allocation reported by mallinfo(arena+hblkhd)
         78441 MiB available memory on the node where the printing process lives
------------------
     ethr =  2.31E-08,  avg # of iterations =  1.0

     negative rho (up, down):  3.043E-03 0.000E+00

     total cpu time spent up to now is      174.9 secs

     total energy              =   -2202.47286754 Ry
     estimated scf accuracy    <       0.00002697 Ry

     iteration # 80     ecut=    30.00 Ry     beta= 0.70
     Davidson diagonalization with overlap

---- Real-time Memory Report at c_bands before calling an iterative solver
          1013 MiB given to the printing process from OS
             0 MiB allocation reported by mallinfo(arena+hblkhd)
         78441 MiB available memory on the node where the printing process lives
------------------
     ethr =  1.66E-08,  avg # of iterations =  1.0

     negative rho (up, down):  3.044E-03 0.000E+00

     total cpu time spent up to now is      176.7 secs

     total energy              =   -2202.47286142 Ry
     estimated scf accuracy    <       0.00005375 Ry

     iteration # 81     ecut=    30.00 Ry     beta= 0.70
     Davidson diagonalization with overlap

---- Real-time Memory Report at c_bands before calling an iterative solver
          1013 MiB given to the printing process from OS
             0 MiB allocation reported by mallinfo(arena+hblkhd)
         78440 MiB available memory on the node where the printing process lives
------------------
     ethr =  1.66E-08,  avg # of iterations =  1.0

     negative rho (up, down):  3.043E-03 0.000E+00

     total cpu time spent up to now is      178.5 secs

     total energy              =   -2202.47284139 Ry
     estimated scf accuracy    <       0.00128825 Ry

     iteration # 82     ecut=    30.00 Ry     beta= 0.70
     Davidson diagonalization with overlap

---- Real-time Memory Report at c_bands before calling an iterative solver
          1013 MiB given to the printing process from OS
             0 MiB allocation reported by mallinfo(arena+hblkhd)
         78441 MiB available memory on the node where the printing process lives
------------------
     ethr =  1.66E-08,  avg # of iterations =  1.0

     negative rho (up, down):  3.043E-03 0.000E+00

     total cpu time spent up to now is      180.3 secs

     total energy              =   -2202.47286898 Ry
     estimated scf accuracy    <       0.00000838 Ry

     iteration # 83     ecut=    30.00 Ry     beta= 0.70
     Davidson diagonalization with overlap

---- Real-time Memory Report at c_bands before calling an iterative solver
          1013 MiB given to the printing process from OS
             0 MiB allocation reported by mallinfo(arena+hblkhd)
         78441 MiB available memory on the node where the printing process lives
------------------
     ethr =  5.17E-09,  avg # of iterations =  2.0

     negative rho (up, down):  3.043E-03 0.000E+00

     total cpu time spent up to now is      182.1 secs

     total energy              =   -2202.47286574 Ry
     estimated scf accuracy    <       0.00009894 Ry

     iteration # 84     ecut=    30.00 Ry     beta= 0.70
     Davidson diagonalization with overlap

---- Real-time Memory Report at c_bands before calling an iterative solver
          1013 MiB given to the printing process from OS
             0 MiB allocation reported by mallinfo(arena+hblkhd)
         78441 MiB available memory on the node where the printing process lives
------------------
     ethr =  5.17E-09,  avg # of iterations =  2.0

     negative rho (up, down):  3.043E-03 0.000E+00

     total cpu time spent up to now is      183.9 secs

     total energy              =   -2202.47284567 Ry
     estimated scf accuracy    <       0.00144096 Ry

     iteration # 85     ecut=    30.00 Ry     beta= 0.70
     Davidson diagonalization with overlap

---- Real-time Memory Report at c_bands before calling an iterative solver
          1013 MiB given to the printing process from OS
             0 MiB allocation reported by mallinfo(arena+hblkhd)
         78440 MiB available memory on the node where the printing process lives
------------------
     ethr =  5.17E-09,  avg # of iterations =  2.0

     negative rho (up, down):  3.043E-03 0.000E+00

     total cpu time spent up to now is      185.7 secs

     total energy              =   -2202.47282071 Ry
     estimated scf accuracy    <       0.00174960 Ry

     iteration # 86     ecut=    30.00 Ry     beta= 0.70
     Davidson diagonalization with overlap

---- Real-time Memory Report at c_bands before calling an iterative solver
          1013 MiB given to the printing process from OS
             0 MiB allocation reported by mallinfo(arena+hblkhd)
         78439 MiB available memory on the node where the printing process lives
------------------
     ethr =  5.17E-09,  avg # of iterations =  2.0

     negative rho (up, down):  3.043E-03 0.000E+00

     total cpu time spent up to now is      187.6 secs

     total energy              =   -2202.47286925 Ry
     estimated scf accuracy    <       0.00002525 Ry

     iteration # 87     ecut=    30.00 Ry     beta= 0.70
     Davidson diagonalization with overlap

---- Real-time Memory Report at c_bands before calling an iterative solver
          1013 MiB given to the printing process from OS
             0 MiB allocation reported by mallinfo(arena+hblkhd)
         78439 MiB available memory on the node where the printing process lives
------------------
     ethr =  5.17E-09,  avg # of iterations =  1.0

     negative rho (up, down):  3.043E-03 0.000E+00

     total cpu time spent up to now is      189.6 secs

     total energy              =   -2202.47286988 Ry
     estimated scf accuracy    <       0.00003241 Ry

     iteration # 88     ecut=    30.00 Ry     beta= 0.70
     Davidson diagonalization with overlap

---- Real-time Memory Report at c_bands before calling an iterative solver
          1013 MiB given to the printing process from OS
             0 MiB allocation reported by mallinfo(arena+hblkhd)
         78438 MiB available memory on the node where the printing process lives
------------------
     ethr =  5.17E-09,  avg # of iterations =  1.0

     negative rho (up, down):  3.043E-03 0.000E+00

     total cpu time spent up to now is      194.7 secs

     total energy              =   -2202.47286868 Ry
     estimated scf accuracy    <       0.00004552 Ry

     iteration # 89     ecut=    30.00 Ry     beta= 0.70
     Davidson diagonalization with overlap

---- Real-time Memory Report at c_bands before calling an iterative solver
          1013 MiB given to the printing process from OS
             0 MiB allocation reported by mallinfo(arena+hblkhd)
         78433 MiB available memory on the node where the printing process lives
------------------
     ethr =  5.17E-09,  avg # of iterations =  1.0

     negative rho (up, down):  3.043E-03 0.000E+00

     total cpu time spent up to now is      199.7 secs

     total energy              =   -2202.47287059 Ry
     estimated scf accuracy    <       0.00000675 Ry

     iteration # 90     ecut=    30.00 Ry     beta= 0.70
     Davidson diagonalization with overlap

---- Real-time Memory Report at c_bands before calling an iterative solver
          1013 MiB given to the printing process from OS
             0 MiB allocation reported by mallinfo(arena+hblkhd)
         78435 MiB available memory on the node where the printing process lives
------------------
     ethr =  4.17E-09,  avg # of iterations =  1.0

     negative rho (up, down):  3.044E-03 0.000E+00

     total cpu time spent up to now is      204.8 secs

     total energy              =   -2202.47287079 Ry
     estimated scf accuracy    <       0.00000966 Ry

     iteration # 91     ecut=    30.00 Ry     beta= 0.70
     Davidson diagonalization with overlap

---- Real-time Memory Report at c_bands before calling an iterative solver
          1013 MiB given to the printing process from OS
             0 MiB allocation reported by mallinfo(arena+hblkhd)
         78436 MiB available memory on the node where the printing process lives
------------------
     ethr =  4.17E-09,  avg # of iterations =  2.0

     negative rho (up, down):  3.043E-03 0.000E+00

     total cpu time spent up to now is      209.9 secs

     total energy              =   -2202.47286430 Ry
     estimated scf accuracy    <       0.00022784 Ry

     iteration # 92     ecut=    30.00 Ry     beta= 0.70
     Davidson diagonalization with overlap

---- Real-time Memory Report at c_bands before calling an iterative solver
          1013 MiB given to the printing process from OS
             0 MiB allocation reported by mallinfo(arena+hblkhd)
         78437 MiB available memory on the node where the printing process lives
------------------
     ethr =  4.17E-09,  avg # of iterations =  2.0

     negative rho (up, down):  3.043E-03 0.000E+00

     total cpu time spent up to now is      215.0 secs

     total energy              =   -2202.47286796 Ry
     estimated scf accuracy    <       0.00013634 Ry

     iteration # 93     ecut=    30.00 Ry     beta= 0.70
     Davidson diagonalization with overlap

---- Real-time Memory Report at c_bands before calling an iterative solver
          1013 MiB given to the printing process from OS
             0 MiB allocation reported by mallinfo(arena+hblkhd)
         78437 MiB available memory on the node where the printing process lives
------------------
     ethr =  4.17E-09,  avg # of iterations =  1.0

     negative rho (up, down):  3.044E-03 0.000E+00

     total cpu time spent up to now is      217.3 secs

     total energy              =   -2202.47287081 Ry
     estimated scf accuracy    <       0.00001080 Ry

     iteration # 94     ecut=    30.00 Ry     beta= 0.70
     Davidson diagonalization with overlap

---- Real-time Memory Report at c_bands before calling an iterative solver
          1013 MiB given to the printing process from OS
             0 MiB allocation reported by mallinfo(arena+hblkhd)
         78436 MiB available memory on the node where the printing process lives
------------------
     ethr =  4.17E-09,  avg # of iterations =  2.0

     negative rho (up, down):  3.043E-03 0.000E+00

     total cpu time spent up to now is      219.1 secs

     total energy              =   -2202.47286641 Ry
     estimated scf accuracy    <       0.00029047 Ry

     iteration # 95     ecut=    30.00 Ry     beta= 0.70
     Davidson diagonalization with overlap

---- Real-time Memory Report at c_bands before calling an iterative solver
          1013 MiB given to the printing process from OS
             0 MiB allocation reported by mallinfo(arena+hblkhd)
         78435 MiB available memory on the node where the printing process lives
------------------
     ethr =  4.17E-09,  avg # of iterations =  2.0

     negative rho (up, down):  3.043E-03 0.000E+00

     total cpu time spent up to now is      220.9 secs

     total energy              =   -2202.47286540 Ry
     estimated scf accuracy    <       0.00024029 Ry

     iteration # 96     ecut=    30.00 Ry     beta= 0.70
     Davidson diagonalization with overlap

---- Real-time Memory Report at c_bands before calling an iterative solver
          1013 MiB given to the printing process from OS
             0 MiB allocation reported by mallinfo(arena+hblkhd)
         78436 MiB available memory on the node where the printing process lives
------------------
     ethr =  4.17E-09,  avg # of iterations =  1.0

     negative rho (up, down):  3.043E-03 0.000E+00

     total cpu time spent up to now is      222.7 secs

     total energy              =   -2202.47287116 Ry
     estimated scf accuracy    <       0.00003595 Ry

     iteration # 97     ecut=    30.00 Ry     beta= 0.70
     Davidson diagonalization with overlap

---- Real-time Memory Report at c_bands before calling an iterative solver
          1013 MiB given to the printing process from OS
             0 MiB allocation reported by mallinfo(arena+hblkhd)
         78437 MiB available memory on the node where the printing process lives
------------------
     ethr =  4.17E-09,  avg # of iterations =  1.0

     negative rho (up, down):  3.043E-03 0.000E+00

     total cpu time spent up to now is      224.5 secs

     total energy              =   -2202.47287067 Ry
     estimated scf accuracy    <       0.00003098 Ry

     iteration # 98     ecut=    30.00 Ry     beta= 0.70
     Davidson diagonalization with overlap

---- Real-time Memory Report at c_bands before calling an iterative solver
          1013 MiB given to the printing process from OS
             0 MiB allocation reported by mallinfo(arena+hblkhd)
         78437 MiB available memory on the node where the printing process lives
------------------
     ethr =  4.17E-09,  avg # of iterations =  1.0

     negative rho (up, down):  3.043E-03 0.000E+00

     total cpu time spent up to now is      226.3 secs

     total energy              =   -2202.47287136 Ry
     estimated scf accuracy    <       0.00001060 Ry

     iteration # 99     ecut=    30.00 Ry     beta= 0.70
     Davidson diagonalization with overlap

---- Real-time Memory Report at c_bands before calling an iterative solver
          1013 MiB given to the printing process from OS
             0 MiB allocation reported by mallinfo(arena+hblkhd)
         78437 MiB available memory on the node where the printing process lives
------------------
     ethr =  4.17E-09,  avg # of iterations =  1.0

     negative rho (up, down):  3.043E-03 0.000E+00

     total cpu time spent up to now is      228.1 secs

     total energy              =   -2202.47287150 Ry
     estimated scf accuracy    <       0.00000197 Ry

     iteration #100     ecut=    30.00 Ry     beta= 0.70
     Davidson diagonalization with overlap

---- Real-time Memory Report at c_bands before calling an iterative solver
          1013 MiB given to the printing process from OS
             0 MiB allocation reported by mallinfo(arena+hblkhd)
         78437 MiB available memory on the node where the printing process lives
------------------
     ethr =  1.21E-09,  avg # of iterations =  1.0

     negative rho (up, down):  3.044E-03 0.000E+00

     total cpu time spent up to now is      229.9 secs

     total energy              =   -2202.47287151 Ry
     estimated scf accuracy    <       0.00000736 Ry

     End of self-consistent calculation

     convergence NOT achieved after 100 iterations: stopping

     Writing config to output data dir new_calculations/myprefix.save/
     Message from routine punch:
     wavefunctions written to file
 
     init_run     :    280.39s CPU     15.47s WALL (       1 calls)
     electrons    :   6291.66s CPU    214.33s WALL (       1 calls)

     Called by init_run:
     wfcinit      :    117.45s CPU      4.09s WALL (       1 calls)
     wfcinit:atom :      0.09s CPU      0.00s WALL (       1 calls)
     wfcinit:wfcr :    116.93s CPU      4.07s WALL (       1 calls)
     potinit      :     55.10s CPU      2.08s WALL (       1 calls)
     hinit0       :     84.72s CPU      8.09s WALL (       1 calls)

     Called by electrons:
     c_bands      :   2518.87s CPU     81.45s WALL (     100 calls)
     sum_band     :   1275.24s CPU     49.29s WALL (     100 calls)
     v_of_rho     :     84.79s CPU      2.86s WALL (     101 calls)
     v_h          :      6.80s CPU      0.22s WALL (     101 calls)
     v_xc         :     77.75s CPU      2.62s WALL (     101 calls)
     newd         :    851.20s CPU     28.78s WALL (     101 calls)
     PAW_pot      :   1533.84s CPU     50.90s WALL (     101 calls)
     mix_rho      :     30.60s CPU      1.00s WALL (     100 calls)

     Called by c_bands:
     init_us_2    :      4.00s CPU      0.14s WALL (     201 calls)
     init_us_2:cp :      3.66s CPU      0.12s WALL (     201 calls)
     regterg      :   2500.16s CPU     80.83s WALL (     100 calls)

     Called by sum_band:
     sum_band:wei :      0.60s CPU      0.02s WALL (     100 calls)
     sum_band:loo :    537.39s CPU     17.35s WALL (     100 calls)
     sum_band:buf :      0.07s CPU      0.00s WALL (     100 calls)
     sum_band:ini :      2.07s CPU      0.07s WALL (     100 calls)
     sum_band:cal :      5.52s CPU      0.18s WALL (     100 calls)
     sum_band:bec :      0.91s CPU      0.03s WALL (     100 calls)
     addusdens    :    726.07s CPU     31.55s WALL (     100 calls)
     addusd:skk   :      5.29s CPU      0.28s WALL (     500 calls)
     addusd:dgemm :     58.20s CPU      9.45s WALL (     500 calls)
     addusd:qvan2 :    640.60s CPU     20.74s WALL (     500 calls)

     Called by *egterg:
     rdiaghg      :     78.52s CPU      2.60s WALL (     293 calls)
     regterg:over :      9.44s CPU      0.31s WALL (     193 calls)
     regterg:upda :      4.39s CPU      0.15s WALL (     193 calls)
     regterg:last :      9.46s CPU      0.32s WALL (     148 calls)
     h_psi        :   2465.56s CPU     79.84s WALL (     294 calls)
     s_psi        :      1.97s CPU      0.06s WALL (     294 calls)
     g_psi        :      0.36s CPU      0.01s WALL (     193 calls)

     Called by h_psi:
     h_psi:calbec :     12.65s CPU      0.42s WALL (     294 calls)
     vloc_psi     :   2446.94s CPU     79.22s WALL (     294 calls)
     add_vuspsi   :      2.91s CPU      0.10s WALL (     294 calls)

     General routines
     calbec       :     17.61s CPU      0.59s WALL (     394 calls)
     fft          :     73.73s CPU      3.04s WALL (    1111 calls)
     ffts         :     36.21s CPU      1.33s WALL (     201 calls)
     fftw         :   2770.85s CPU     89.54s WALL (   25548 calls)
     interpolate  :     41.49s CPU      1.50s WALL (     101 calls)
     davcio       :      0.00s CPU      0.18s WALL (      19 calls)
 
     Parallel routines

     PAW routines
     PAW_pot      :   1533.84s CPU     50.90s WALL (     101 calls)
 
     PWSCF        :      1h49m CPU   3m50.67s WALL

 
   This run was terminated on:   1:56:38  21May2023            

=------------------------------------------------------------------------------=
   JOB DONE.
=------------------------------------------------------------------------------=
