
     Program PWSCF v.7.0 starts on 20May2023 at 23: 0:12 

     This program is part of the open-source Quantum ESPRESSO suite
     for quantum simulation of materials; please cite
         "P. Giannozzi et al., J. Phys.:Condens. Matter 21 395502 (2009);
         "P. Giannozzi et al., J. Phys.:Condens. Matter 29 465901 (2017);
         "P. Giannozzi et al., J. Chem. Phys. 152 154105 (2020);
          URL http://www.quantum-espresso.org", 
     in publications or presentations arising from this work. More details at
     http://www.quantum-espresso.org/quote

     Parallel version (MPI & OpenMP), running on      32 processor cores
     Number of MPI processes:                 1
     Threads/MPI process:                    32

     MPI processes distributed on     1 nodes
     168530 MiB available memory on the printing compute node when the environment starts
 
     Reading input from espresso_9728.pwi
Warning: card &CELL ignored
Warning: card / ignored

     Current dimensions of program PWSCF are:
     Max number of different atomic species (ntypx) = 10
     Max number of k-points (npk) =  40000
     Max angular momentum in pseudopotentials (lmaxx) =  4
     file Mg.pbe-n-kjpaw_psl.0.3.0.UPF: wavefunction(s)  3S renormalized

     gamma-point specific algorithms are used
     Found identity + ( -0.0000 -0.0000  0.5000) symmetry
     This is a supercell, fractional translations are disabled

     Subspace diagonalization in iterative solution of the eigenvalue problem:
     a serial algorithm will be used

 
     G-vector sticks info
     --------------------
     sticks:   dense  smooth     PW     G-vecs:    dense   smooth      PW
     Sum        1039     511    121                87329    30839    3861
 
     Using Slab Decomposition
 


     bravais-lattice index     =            0
     lattice parameter (alat)  =       7.9119  a.u.
     unit-cell volume          =    1387.9185 (a.u.)^3
     number of atoms/cell      =           10
     number of atomic types    =            3
     number of electrons       =        68.00
     number of Kohn-Sham states=           41
     kinetic-energy cutoff     =      30.0000  Ry
     charge density cutoff     =     240.0000  Ry
     scf convergence threshold =      1.0E-06
     mixing beta               =       0.7000
     number of iterations used =            8  plain     mixing
     Exchange-correlation= PBE
                           (   1   4   3   4   0   0   0)

     celldm(1)=   7.911919  celldm(2)=   0.000000  celldm(3)=   0.000000
     celldm(4)=   0.000000  celldm(5)=   0.000000  celldm(6)=   0.000000

     crystal axes: (cart. coord. in units of alat)
               a(1) = (   1.000000   0.000000   0.000000 )  
               a(2) = (  -0.500047   0.866052   0.000000 )  
               a(3) = (   0.000234   0.000135   3.235745 )  

     reciprocal axes: (cart. coord. in units 2 pi/alat)
               b(1) = (  1.000000  0.577386 -0.000097 )  
               b(2) = (  0.000000  1.154665 -0.000048 )  
               b(3) = (  0.000000  0.000000  0.309048 )  


     PseudoPot. # 1 for Mg read from file:
     /home/pragov/projects/rrg-bengioy-ad/pragov/crystal_structure_design/SSSP/Mg.pbe-n-kjpaw_psl.0.3.0.UPF
     MD5 check sum: 24ecedc7f3e3cbe212e682f4413594e4
     Pseudo is Projector augmented-wave + core cor, Zval =  2.0
     Generated using "atomic" code by A. Dal Corso  v.5.0.99 svn rev. 10869
     Shape of augmentation charge: PSQ
     Using radial grid of 1129 points,  4 beta functions with: 
                l(1) =   0
                l(2) =   0
                l(3) =   1
                l(4) =   1
     Q(r) pseudized with 0 coefficients 


     PseudoPot. # 2 for Zn read from file:
     /home/pragov/projects/rrg-bengioy-ad/pragov/crystal_structure_design/SSSP/Zn_pbe_v1.uspp.F.UPF
     MD5 check sum: df62231357ef9e81f77b2b3087fa5675
     Pseudo is Ultrasoft, Zval = 20.0
     Generated by new atomic code, or converted to UPF format
     Using radial grid of  943 points,  6 beta functions with: 
                l(1) =   0
                l(2) =   0
                l(3) =   1
                l(4) =   1
                l(5) =   2
                l(6) =   2
     Q(r) pseudized with  8 coefficients,  rinner =    1.100   1.100   1.100
                                                       1.100   1.100

     PseudoPot. # 3 for As read from file:
     /home/pragov/projects/rrg-bengioy-ad/pragov/crystal_structure_design/SSSP/As.pbe-n-rrkjus_psl.0.2.UPF
     MD5 check sum: 767315de957beeeb34f87d97bf945c8f
     Pseudo is Ultrasoft + core correction, Zval =  5.0
     Generated using "atomic" code by A. Dal Corso  v.5.0.99 svn rev. 10869
     Using radial grid of 1209 points,  4 beta functions with: 
                l(1) =   0
                l(2) =   0
                l(3) =   1
                l(4) =   1
     Q(r) pseudized with 0 coefficients 


     atomic species   valence    mass     pseudopotential
        Mg             2.00    24.30500     Mg( 1.00)
        Zn            20.00    65.38000     Zn( 1.00)
        As             5.00    74.92159     As( 1.00)

     No symmetry found


                                    s                        frac. trans.

      isym =  1     identity                                     

 cryst.   s( 1) = (     1          0          0      )
                  (     0          1          0      )
                  (     0          0          1      )

 cart.    s( 1) = (  1.0000000  0.0000000  0.0000000 )
                  (  0.0000000  1.0000000 -0.0000000 )
                  (  0.0000000  0.0000000  1.0000000 )


   Cartesian axes

     site n.     atom                  positions (alat units)
         1           Mg  tau(   1) = (   0.5001713   0.8661786   3.2281511  )
         2           Mg  tau(   2) = (   0.5000541   0.8661109   1.6102784  )
         3           Mg  tau(   3) = (   0.0000525   0.5774163   1.0215087  )
         4           Mg  tau(   4) = (   0.0001697   0.5774840   2.6393814  )
         5           Zn  tau(   5) = (   0.5000231   0.2887069   0.5950601  )
         6           Zn  tau(   6) = (   0.5001403   0.2887746   2.2129328  )
         7           As  tau(   7) = (   0.0000270   0.5774016   0.3803554  )
         8           As  tau(   8) = (   0.0001442   0.5774693   1.9982281  )
         9           As  tau(   9) = (   0.5000548   0.2887247   1.2464156  )
        10           As  tau(  10) = (   0.5001720   0.2887924   2.8642883  )

   Crystallographic axes

     site n.     atom                  positions (cryst. coord.)
         1           Mg  tau(   1) = (  0.9999790  0.9999900  0.9976530  )
         2           Mg  tau(   2) = (  0.9999790  0.9999900  0.4976530  )
         3           Mg  tau(   3) = (  0.3333460  0.6666730  0.3156950  )
         4           Mg  tau(   4) = (  0.3333460  0.6666730  0.8156950  )
         5           Zn  tau(   5) = (  0.6666610  0.3333310  0.1839020  )
         6           Zn  tau(   6) = (  0.6666610  0.3333310  0.6839020  )
         7           As  tau(   7) = (  0.3333740  0.6666870  0.1175480  )
         8           As  tau(   8) = (  0.3333740  0.6666870  0.6175480  )
         9           As  tau(   9) = (  0.6666400  0.3333200  0.3852020  )
        10           As  tau(  10) = (  0.6666400  0.3333200  0.8852020  )

     number of k points=     1  Methfessel-Paxton smearing, width (Ry)=  0.0010
                       cart. coord. in units 2pi/alat
        k(    1) = (   0.0000000   0.0000000   0.0000000), wk =   2.0000000

                       cryst. coord.
        k(    1) = (   0.0000000   0.0000000   0.0000000), wk =   2.0000000

     Dense  grid:    43665 G-vectors     FFT dimensions: (  40,  40, 128)

     Smooth grid:    15420 G-vectors     FFT dimensions: (  27,  27,  90)

     Dynamical RAM for                 wfc:       1.20 MB

     Dynamical RAM for     wfc (w. buffer):       1.20 MB

     Dynamical RAM for           str. fact:       2.00 MB

     Dynamical RAM for           local pot:       0.00 MB

     Dynamical RAM for          nlocal pot:       2.94 MB

     Dynamical RAM for                qrad:       3.73 MB

     Dynamical RAM for          rho,v,vnew:       6.69 MB

     Dynamical RAM for               rhoin:       2.23 MB

     Dynamical RAM for            rho*nmix:      10.66 MB

     Dynamical RAM for           G-vectors:       2.62 MB

     Dynamical RAM for          h,s,v(r/c):       0.15 MB

     Dynamical RAM for          <psi|beta>:       0.03 MB

     Dynamical RAM for                 psi:       2.41 MB

     Dynamical RAM for                hpsi:       2.41 MB

     Dynamical RAM for                spsi:       2.41 MB

     Dynamical RAM for      wfcinit/wfcrot:       3.49 MB

     Dynamical RAM for           addusdens:     126.59 MB

     Dynamical RAM for          addusforce:     130.94 MB

     Dynamical RAM for         addusstress:     133.92 MB

     Estimated static dynamical RAM per process >      31.88 MB

     Estimated max dynamical RAM per process >     176.47 MB

     Initial potential from superposition of free atoms

     starting charge      67.9951, renormalised to      68.0000
     Starting wfcs are   58 randomized atomic wfcs
     Checking if some PAW data can be deallocated... 

     total cpu time spent up to now is        5.2 secs

     Self-consistent Calculation

     iteration #  1     ecut=    30.00 Ry     beta= 0.70
     Davidson diagonalization with overlap

---- Real-time Memory Report at c_bands before calling an iterative solver
           452 MiB given to the printing process from OS
             0 MiB allocation reported by mallinfo(arena+hblkhd)
        168350 MiB available memory on the node where the printing process lives
------------------
     ethr =  1.00E-02,  avg # of iterations =  2.0

     total cpu time spent up to now is        5.8 secs

     total energy              =   -1128.07440942 Ry
     estimated scf accuracy    <       1.46769979 Ry

     iteration #  2     ecut=    30.00 Ry     beta= 0.70
     Davidson diagonalization with overlap

---- Real-time Memory Report at c_bands before calling an iterative solver
           476 MiB given to the printing process from OS
             0 MiB allocation reported by mallinfo(arena+hblkhd)
        168333 MiB available memory on the node where the printing process lives
------------------
     ethr =  2.16E-03,  avg # of iterations =  7.0

     total cpu time spent up to now is        6.4 secs

     total energy              =   -1128.11476901 Ry
     estimated scf accuracy    <       1.38039584 Ry

     iteration #  3     ecut=    30.00 Ry     beta= 0.70
     Davidson diagonalization with overlap

---- Real-time Memory Report at c_bands before calling an iterative solver
           501 MiB given to the printing process from OS
             0 MiB allocation reported by mallinfo(arena+hblkhd)
        168309 MiB available memory on the node where the printing process lives
------------------
     ethr =  2.03E-03,  avg # of iterations =  3.0

     total cpu time spent up to now is        7.0 secs

     total energy              =   -1128.46952857 Ry
     estimated scf accuracy    <       0.80873304 Ry

     iteration #  4     ecut=    30.00 Ry     beta= 0.70
     Davidson diagonalization with overlap

---- Real-time Memory Report at c_bands before calling an iterative solver
           501 MiB given to the printing process from OS
             0 MiB allocation reported by mallinfo(arena+hblkhd)
        168304 MiB available memory on the node where the printing process lives
------------------
     ethr =  1.19E-03,  avg # of iterations =  2.0

     total cpu time spent up to now is        7.5 secs

     total energy              =   -1128.55490191 Ry
     estimated scf accuracy    <       0.05965134 Ry

     iteration #  5     ecut=    30.00 Ry     beta= 0.70
     Davidson diagonalization with overlap

---- Real-time Memory Report at c_bands before calling an iterative solver
           501 MiB given to the printing process from OS
             0 MiB allocation reported by mallinfo(arena+hblkhd)
        168303 MiB available memory on the node where the printing process lives
------------------
     ethr =  8.77E-05,  avg # of iterations =  6.0

     total cpu time spent up to now is        8.0 secs

     total energy              =   -1128.55743488 Ry
     estimated scf accuracy    <       0.03342667 Ry

     iteration #  6     ecut=    30.00 Ry     beta= 0.70
     Davidson diagonalization with overlap

---- Real-time Memory Report at c_bands before calling an iterative solver
           501 MiB given to the printing process from OS
             0 MiB allocation reported by mallinfo(arena+hblkhd)
        168304 MiB available memory on the node where the printing process lives
------------------
     ethr =  4.92E-05,  avg # of iterations =  9.0

     total cpu time spent up to now is        8.7 secs

     total energy              =   -1128.56052308 Ry
     estimated scf accuracy    <       0.02713900 Ry

     iteration #  7     ecut=    30.00 Ry     beta= 0.70
     Davidson diagonalization with overlap

---- Real-time Memory Report at c_bands before calling an iterative solver
           502 MiB given to the printing process from OS
             0 MiB allocation reported by mallinfo(arena+hblkhd)
        168304 MiB available memory on the node where the printing process lives
------------------
     ethr =  3.99E-05,  avg # of iterations =  8.0

     total cpu time spent up to now is        9.2 secs

     total energy              =   -1128.56388970 Ry
     estimated scf accuracy    <       0.00740030 Ry

     iteration #  8     ecut=    30.00 Ry     beta= 0.70
     Davidson diagonalization with overlap

---- Real-time Memory Report at c_bands before calling an iterative solver
           502 MiB given to the printing process from OS
             0 MiB allocation reported by mallinfo(arena+hblkhd)
        168305 MiB available memory on the node where the printing process lives
------------------
     ethr =  1.09E-05,  avg # of iterations =  9.0

     total cpu time spent up to now is        9.9 secs

     total energy              =   -1128.56507292 Ry
     estimated scf accuracy    <       0.00363134 Ry

     iteration #  9     ecut=    30.00 Ry     beta= 0.70
     Davidson diagonalization with overlap

---- Real-time Memory Report at c_bands before calling an iterative solver
           502 MiB given to the printing process from OS
             0 MiB allocation reported by mallinfo(arena+hblkhd)
        168302 MiB available memory on the node where the printing process lives
------------------
     ethr =  5.34E-06,  avg # of iterations =  6.0

     total cpu time spent up to now is       10.5 secs

     total energy              =   -1128.56566926 Ry
     estimated scf accuracy    <       0.00047193 Ry

     iteration # 10     ecut=    30.00 Ry     beta= 0.70
     Davidson diagonalization with overlap

---- Real-time Memory Report at c_bands before calling an iterative solver
           502 MiB given to the printing process from OS
             0 MiB allocation reported by mallinfo(arena+hblkhd)
        168303 MiB available memory on the node where the printing process lives
------------------
     ethr =  6.94E-07,  avg # of iterations =  5.0

     total cpu time spent up to now is       11.0 secs

     total energy              =   -1128.56579510 Ry
     estimated scf accuracy    <       0.00002022 Ry

     iteration # 11     ecut=    30.00 Ry     beta= 0.70
     Davidson diagonalization with overlap

---- Real-time Memory Report at c_bands before calling an iterative solver
           503 MiB given to the printing process from OS
             0 MiB allocation reported by mallinfo(arena+hblkhd)
        168300 MiB available memory on the node where the printing process lives
------------------
     ethr =  2.97E-08,  avg # of iterations =  3.0

     total cpu time spent up to now is       11.6 secs

     total energy              =   -1128.56579906 Ry
     estimated scf accuracy    <       0.00000270 Ry

     iteration # 12     ecut=    30.00 Ry     beta= 0.70
     Davidson diagonalization with overlap

---- Real-time Memory Report at c_bands before calling an iterative solver
           504 MiB given to the printing process from OS
             0 MiB allocation reported by mallinfo(arena+hblkhd)
        168294 MiB available memory on the node where the printing process lives
------------------
     ethr =  3.96E-09,  avg # of iterations =  6.0

     total cpu time spent up to now is       12.1 secs

     End of self-consistent calculation

          k = 0.0000 0.0000 0.0000 (  1931 PWs)   bands (ev):

  -120.1876-120.1859 -74.3904 -74.3891 -74.2669 -74.2667 -74.2608 -74.2607
    -4.7162  -4.3113  -3.9699  -3.3485  -1.1724  -1.1515  -1.1515  -1.1476
    -1.1475  -1.0837  -1.0837  -1.0804  -1.0804  -1.0272   1.1167   2.9459
     3.8136   5.9109   5.9115   6.2074   6.2076   6.5546   6.5550   6.8860
     6.8862   6.9984   7.2356   8.0573   8.3573   9.1715  10.1260  10.1264
    10.4690

     occupation numbers 
     1.0000   1.0000   1.0000   1.0000   1.0000   1.0000   1.0000   1.0000
     1.0000   1.0000   1.0000   1.0000   1.0000   1.0000   1.0000   1.0000
     1.0000   1.0000   1.0000   1.0000   1.0000   1.0000   1.0000   1.0000
     1.0000   1.0000   1.0000   1.0000   1.0000   1.0000   1.0000   1.0000
     1.0000   1.0000  -0.0000  -0.0000  -0.0000  -0.0000  -0.0000  -0.0000
    -0.0000

     the Fermi energy is     7.1528 ev

!    total energy              =   -1128.56579953 Ry
     estimated scf accuracy    <       0.00000089 Ry
     smearing contrib. (-TS)   =       0.00000000 Ry
     internal energy E=F+TS    =   -1128.56579953 Ry

     The total energy is F=E-TS. E is the sum of the following terms:
     one-electron contribution =   -1105.15870193 Ry
     hartree contribution      =     572.55294658 Ry
     xc contribution           =    -128.66284648 Ry
     ewald contribution        =    -342.27527738 Ry
     one-center paw contrib.   =    -125.02192031 Ry
      -> PAW hartree energy AE =       1.61857106 Ry
      -> PAW hartree energy PS =      -1.61466015 Ry
      -> PAW xc energy AE      =    -129.38121279 Ry
      -> PAW xc energy PS      =       4.35538157 Ry
      -> total E_H with PAW    =     572.55685749 Ry
      -> total E_XC with PAW   =    -253.68867770 Ry

     convergence has been achieved in  12 iterations

     Forces acting on atoms (cartesian axes, Ry/au):

     atom    1 type  1   force =    -0.00000535    0.00002660    0.00129164
     atom    2 type  1   force =    -0.00000489    0.00003044    0.00129323
     atom    3 type  1   force =     0.00000254    0.00003153    0.01354027
     atom    4 type  1   force =     0.00000169    0.00002654    0.01349378
     atom    5 type  2   force =    -0.00004618   -0.00014587    0.04371690
     atom    6 type  2   force =    -0.00002773   -0.00023482    0.04087820
     atom    7 type  3   force =     0.00001998    0.00004273   -0.04532591
     atom    8 type  3   force =     0.00001525    0.00003646   -0.04503002
     atom    9 type  3   force =     0.00001990    0.00007481   -0.01204855
     atom   10 type  3   force =     0.00002481    0.00011158   -0.01180954
     The non-local contrib.  to forces
     atom    1 type  1   force =     0.00001498    0.00000702    0.01442317
     atom    2 type  1   force =     0.00001528    0.00000894    0.01442122
     atom    3 type  1   force =     0.00000660    0.00000895    0.06257863
     atom    4 type  1   force =     0.00000592    0.00000703    0.06264154
     atom    5 type  2   force =     0.00002191   -0.00003378   -0.61419642
     atom    6 type  2   force =     0.00002525    0.00005519   -0.61609207
     atom    7 type  3   force =    -0.00001602   -0.00001448    0.18760642
     atom    8 type  3   force =    -0.00000318    0.00003863    0.18763676
     atom    9 type  3   force =    -0.00000089   -0.00000257   -0.02630469
     atom   10 type  3   force =    -0.00001375   -0.00008976   -0.02611405
     The ionic contribution  to forces
     atom    1 type  1   force =     0.00005419    0.00003001   -1.82276705
     atom    2 type  1   force =     0.00005419    0.00003001   -1.82276705
     atom    3 type  1   force =     0.00000232    0.00000297    2.92061773
     atom    4 type  1   force =     0.00000232    0.00000297    2.92061773
     atom    5 type  2   force =    -0.00030298   -0.00018613    0.78336760
     atom    6 type  2   force =    -0.00030298   -0.00018613    0.78336760
     atom    7 type  3   force =     0.00008551    0.00006242   -7.09645075
     atom    8 type  3   force =     0.00008551    0.00006242   -7.09645075
     atom    9 type  3   force =     0.00016096    0.00009074    5.21523248
     atom   10 type  3   force =     0.00016096    0.00009074    5.21523248
     The local contribution  to forces
     atom    1 type  1   force =    -0.00007720   -0.00005054    1.81156695
     atom    2 type  1   force =    -0.00007594   -0.00004149    1.81150156
     atom    3 type  1   force =    -0.00001026   -0.00001858   -2.96235938
     atom    4 type  1   force =    -0.00001198   -0.00003121   -2.96194053
     atom    5 type  2   force =     0.00029095    0.00034728   -0.12659785
     atom    6 type  2   force =     0.00028458    0.00033526   -0.12192364
     atom    7 type  3   force =    -0.00006550   -0.00006606    6.88318591
     atom    8 type  3   force =    -0.00008606   -0.00015663    6.88448958
     atom    9 type  3   force =    -0.00013952   -0.00002345   -5.19671506
     atom   10 type  3   force =    -0.00010822    0.00017988   -5.19550280
     The core correction contribution to forces
     atom    1 type  1   force =    -0.00000232   -0.00000128   -0.00205322
     atom    2 type  1   force =    -0.00000234   -0.00000132   -0.00205290
     atom    3 type  1   force =    -0.00000097   -0.00000120   -0.00780554
     atom    4 type  1   force =    -0.00000096   -0.00000127   -0.00781159
     atom    5 type  2   force =     0.00000000    0.00000000    0.00000000
     atom    6 type  2   force =     0.00000000    0.00000000    0.00000000
     atom    7 type  3   force =     0.00000684    0.00000319   -0.01981708
     atom    8 type  3   force =     0.00000412   -0.00000884   -0.01977726
     atom    9 type  3   force =    -0.00000064    0.00000337   -0.00516727
     atom   10 type  3   force =     0.00000321    0.00002782   -0.00515874
     The Hubbard contrib.    to forces
     atom    1 type  1   force =     0.00000000    0.00000000    0.00000000
     atom    2 type  1   force =     0.00000000    0.00000000    0.00000000
     atom    3 type  1   force =     0.00000000    0.00000000    0.00000000
     atom    4 type  1   force =     0.00000000    0.00000000    0.00000000
     atom    5 type  2   force =     0.00000000    0.00000000    0.00000000
     atom    6 type  2   force =     0.00000000    0.00000000    0.00000000
     atom    7 type  3   force =     0.00000000    0.00000000    0.00000000
     atom    8 type  3   force =     0.00000000    0.00000000    0.00000000
     atom    9 type  3   force =     0.00000000    0.00000000    0.00000000
     atom   10 type  3   force =     0.00000000    0.00000000    0.00000000
     The SCF correction term to forces
     atom    1 type  1   force =     0.00000071    0.00000544   -0.00002554
     atom    2 type  1   force =    -0.00000038   -0.00000166    0.00004308
     atom    3 type  1   force =     0.00000056    0.00000344    0.00036151
     atom    4 type  1   force =     0.00000211    0.00001306   -0.00016069
     atom    5 type  2   force =    -0.00006035   -0.00030919    0.00099625
     atom    6 type  2   force =    -0.00003886   -0.00047508   -0.00462102
     atom    7 type  3   force =     0.00000487    0.00002171    0.00000225
     atom    8 type  3   force =     0.00001058    0.00006493   -0.00107568
     atom    9 type  3   force =    -0.00000428   -0.00002924    0.00075867
     atom   10 type  3   force =    -0.00002167   -0.00013307   -0.00041376

     Total force =     0.091202     Total SCF correction =     0.004976


     Computing stress (Cartesian axis) and pressure

          total   stress  (Ry/bohr**3)                   (kbar)     P=       68.51
   0.00070079  -0.00000016  -0.00000010          103.09       -0.02       -0.01
  -0.00000016   0.00070117  -0.00000006           -0.02      103.14       -0.01
  -0.00000010  -0.00000006  -0.00000470           -0.01       -0.01       -0.69

     kinetic stress (kbar)   7667.54     -0.04      0.02
                               -0.04   7667.60      0.01
                                0.02      0.01   7338.28

     local   stress (kbar) -21658.87      0.30      0.02
                                0.30 -21659.11      0.01
                                0.02      0.01   8156.31

     nonloc. stress (kbar)   -174.47      0.03     -0.05
                                0.03   -174.51     -0.03
                               -0.05     -0.03   -250.38

     hartree stress (kbar)  25054.76     -0.09      0.05
                               -0.09  25054.81      0.03
                                0.05      0.03  10575.15

     exc-cor stress (kbar)   -816.80      0.00     -0.00
                                0.00   -816.81     -0.00
                               -0.00     -0.00   -819.39

     corecor stress (kbar)  -2900.74     -0.01      0.00
                               -0.01  -2900.73      0.00
                                0.00      0.00  -2859.43

     ewald   stress (kbar)  -7068.32     -0.21     -0.05
                               -0.21  -7068.11     -0.04
                               -0.05     -0.04 -22141.22

     hubbard stress (kbar)      0.00      0.00      0.00
                                0.00      0.00      0.00
                                0.00      0.00      0.00

     DFT-D   stress (kbar)      0.00      0.00      0.00
                                0.00      0.00      0.00
                                0.00      0.00      0.00

     XDM     stress (kbar)      0.00      0.00      0.00
                                0.00      0.00      0.00
                                0.00      0.00      0.00

     dft-nl  stress (kbar)      0.00      0.00      0.00
                                0.00      0.00      0.00
                                0.00      0.00      0.00

     TS-vdW  stress (kbar)      0.00      0.00      0.00
                                0.00      0.00      0.00
                                0.00      0.00      0.00


                                0.00      0.00      0.00
                                0.00      0.00      0.00


                                0.00      0.00      0.00


     Writing all to output data dir new_calculations/myprefix.save/
 
     init_run     :     93.87s CPU      5.03s WALL (       1 calls)
     electrons    :    207.40s CPU      6.96s WALL (       1 calls)
     forces       :      9.23s CPU      0.30s WALL (       1 calls)
     stress       :     20.93s CPU      0.68s WALL (       1 calls)

     Called by init_run:
     wfcinit      :     16.53s CPU      0.53s WALL (       1 calls)
     wfcinit:atom :      0.03s CPU      0.00s WALL (       1 calls)
     wfcinit:wfcr :     16.32s CPU      0.52s WALL (       1 calls)
     potinit      :     29.90s CPU      0.98s WALL (       1 calls)
     hinit0       :     41.79s CPU      3.31s WALL (       1 calls)

     Called by electrons:
     c_bands      :     79.79s CPU      2.56s WALL (      12 calls)
     sum_band     :     39.64s CPU      1.45s WALL (      12 calls)
     v_of_rho     :     11.08s CPU      0.37s WALL (      13 calls)
     v_h          :      0.90s CPU      0.03s WALL (      13 calls)
     v_xc         :     11.33s CPU      0.38s WALL (      15 calls)
     newd         :     59.97s CPU      2.04s WALL (      13 calls)
     PAW_pot      :     17.43s CPU      0.58s WALL (      13 calls)
     mix_rho      :      2.91s CPU      0.10s WALL (      12 calls)

     Called by c_bands:
     init_us_2    :      0.30s CPU      0.01s WALL (      25 calls)
     init_us_2:cp :      0.26s CPU      0.01s WALL (      25 calls)
     regterg      :     78.83s CPU      2.53s WALL (      12 calls)

     Called by sum_band:
     sum_band:wei :      0.02s CPU      0.00s WALL (      12 calls)
     sum_band:loo :     13.43s CPU      0.43s WALL (      12 calls)
     sum_band:buf :      0.01s CPU      0.00s WALL (      12 calls)
     sum_band:ini :      0.16s CPU      0.01s WALL (      12 calls)
     sum_band:cal :      0.16s CPU      0.01s WALL (      12 calls)
     sum_band:bec :      0.04s CPU      0.00s WALL (      12 calls)
     addusdens    :     24.85s CPU      0.97s WALL (      12 calls)
     addusd:skk   :      0.13s CPU      0.01s WALL (      36 calls)
     addusd:dgemm :      1.20s CPU      0.19s WALL (      36 calls)
     addusd:qvan2 :     14.07s CPU      0.46s WALL (      36 calls)

     Called by *egterg:
     rdiaghg      :      5.06s CPU      0.17s WALL (      78 calls)
     regterg:over :      0.24s CPU      0.01s WALL (      66 calls)
     regterg:upda :      0.46s CPU      0.02s WALL (      66 calls)
     regterg:last :      0.83s CPU      0.03s WALL (      24 calls)
     h_psi        :     86.43s CPU      2.77s WALL (      79 calls)
     s_psi        :      0.13s CPU      0.00s WALL (      79 calls)
     g_psi        :      0.07s CPU      0.00s WALL (      66 calls)

     Called by h_psi:
     h_psi:calbec :      0.47s CPU      0.02s WALL (      79 calls)
     vloc_psi     :     85.29s CPU      2.72s WALL (      79 calls)
     add_vuspsi   :      0.28s CPU      0.01s WALL (      79 calls)

     General routines
     calbec       :      0.52s CPU      0.02s WALL (      96 calls)
     fft          :     24.30s CPU      0.96s WALL (     161 calls)
     ffts         :     25.19s CPU      0.82s WALL (      25 calls)
     fftw         :     83.31s CPU      2.65s WALL (    1644 calls)
     interpolate  :     25.87s CPU      0.85s WALL (      13 calls)
 
     Parallel routines

     PAW routines
     PAW_pot      :     17.43s CPU      0.58s WALL (      13 calls)
 
     PWSCF        :   5m37.69s CPU     13.42s WALL

 
   This run was terminated on:  23: 0:26  20May2023            

=------------------------------------------------------------------------------=
   JOB DONE.
=------------------------------------------------------------------------------=
