
     Program PWSCF v.7.0 starts on 20May2023 at 16:27: 7 

     This program is part of the open-source Quantum ESPRESSO suite
     for quantum simulation of materials; please cite
         "P. Giannozzi et al., J. Phys.:Condens. Matter 21 395502 (2009);
         "P. Giannozzi et al., J. Phys.:Condens. Matter 29 465901 (2017);
         "P. Giannozzi et al., J. Chem. Phys. 152 154105 (2020);
          URL http://www.quantum-espresso.org", 
     in publications or presentations arising from this work. More details at
     http://www.quantum-espresso.org/quote

     Parallel version (MPI & OpenMP), running on      32 processor cores
     Number of MPI processes:                 1
     Threads/MPI process:                    32

     MPI processes distributed on     1 nodes
     113438 MiB available memory on the printing compute node when the environment starts
 
     Reading input from espresso_3611.pwi
Warning: card &CELL ignored
Warning: card / ignored

     Current dimensions of program PWSCF are:
     Max number of different atomic species (ntypx) = 10
     Max number of k-points (npk) =  40000
     Max angular momentum in pseudopotentials (lmaxx) =  4
     file Al.pbe-n-kjpaw_psl.1.0.0.UPF: wavefunction(s)  3S 3P renormalized

     gamma-point specific algorithms are used
     Message from routine setup:
     using ibrav=0 with symmetry is DISCOURAGED, use correct ibrav instead

     Subspace diagonalization in iterative solution of the eigenvalue problem:
     a serial algorithm will be used

 
     G-vector sticks info
     --------------------
     sticks:   dense  smooth     PW     G-vecs:    dense   smooth      PW
     Sum        2199    1099    273               107431    37905    4717
 
     Using Slab Decomposition
 


     bravais-lattice index     =            0
     lattice parameter (alat)  =       8.4396  a.u.
     unit-cell volume          =    1710.7920 (a.u.)^3
     number of atoms/cell      =           12
     number of atomic types    =            3
     number of electrons       =       164.00
     number of Kohn-Sham states=           98
     kinetic-energy cutoff     =      30.0000  Ry
     charge density cutoff     =     240.0000  Ry
     scf convergence threshold =      1.0E-06
     mixing beta               =       0.7000
     number of iterations used =            8  plain     mixing
     Exchange-correlation= PBE
                           (   1   4   3   4   0   0   0)

     celldm(1)=   8.439619  celldm(2)=   0.000000  celldm(3)=   0.000000
     celldm(4)=   0.000000  celldm(5)=   0.000000  celldm(6)=   0.000000

     crystal axes: (cart. coord. in units of alat)
               a(1) = (   1.000000   0.000000   0.000000 )  
               a(2) = (   0.000000   1.623231   0.000000 )  
               a(3) = (   0.000000   0.000000   1.753268 )  

     reciprocal axes: (cart. coord. in units 2 pi/alat)
               b(1) = (  1.000000  0.000000  0.000000 )  
               b(2) = (  0.000000  0.616055  0.000000 )  
               b(3) = (  0.000000  0.000000  0.570363 )  


     PseudoPot. # 1 for Tb read from file:
     /home/pragov/projects/rrg-bengioy-ad/pragov/crystal_structure_design/SSSP/Tb.GGA-PBE-paw-v1.0.UPF
     MD5 check sum: f7bf3d58e9b293961564f5b9598c921e
     Pseudo is Projector augmented-wave + core cor, Zval = 19.0
     Generated using ATOMPAW code
     Shape of augmentation charge: BESSEL
     Using radial grid of 1111 points,  8 beta functions with: 
                l(1) =   0
                l(2) =   0
                l(3) =   1
                l(4) =   1
                l(5) =   2
                l(6) =   2
                l(7) =   3
                l(8) =   3
     Q(r) pseudized with 0 coefficients 


     PseudoPot. # 2 for Al read from file:
     /home/pragov/projects/rrg-bengioy-ad/pragov/crystal_structure_design/SSSP/Al.pbe-n-kjpaw_psl.1.0.0.UPF
     MD5 check sum: cfc449ca30b5f3223ec38ddd88ac046d
     Pseudo is Projector augmented-wave + core cor, Zval =  3.0
     Generated using "atomic" code by A. Dal Corso  v.5.1
     Shape of augmentation charge: PSQ
     Using radial grid of 1135 points,  6 beta functions with: 
                l(1) =   0
                l(2) =   0
                l(3) =   1
                l(4) =   1
                l(5) =   2
                l(6) =   2
     Q(r) pseudized with 0 coefficients 


     PseudoPot. # 3 for Au read from file:
     /home/pragov/projects/rrg-bengioy-ad/pragov/crystal_structure_design/SSSP/Au_ONCV_PBE-1.0.oncvpsp.upf
     MD5 check sum: d14007822ba0e19f0206237467fc06c2
     Pseudo is Norm-conserving, Zval = 19.0
     Generated using ONCVPSP code by D. R. Hamann
     Using radial grid of 1278 points,  8 beta functions with: 
                l(1) =   0
                l(2) =   0
                l(3) =   1
                l(4) =   1
                l(5) =   2
                l(6) =   2
                l(7) =   3
                l(8) =   3

     atomic species   valence    mass     pseudopotential
        Tb            19.00   158.92535     Tb( 1.00)
        Al             3.00    26.98154     Al( 1.00)
        Au            19.00   196.96657     Au( 1.00)

      8 Sym. Ops., with inversion, found ( 6 have fractional translation)


                                    s                        frac. trans.

      isym =  1     identity                                     

 cryst.   s( 1) = (     1          0          0      )
                  (     0          1          0      )
                  (     0          0          1      )

 cart.    s( 1) = (  1.0000000  0.0000000  0.0000000 )
                  (  0.0000000  1.0000000  0.0000000 )
                  (  0.0000000  0.0000000  1.0000000 )


      isym =  2     180 deg rotation - cart. axis [0,0,1]        

 cryst.   s( 2) = (    -1          0          0      )    f =(  0.0000000 )
                  (     0         -1          0      )       (  0.5000000 )
                  (     0          0          1      )       ( -0.5000000 )

 cart.    s( 2) = ( -1.0000000  0.0000000  0.0000000 )    f =(  0.0000000 )
                  (  0.0000000 -1.0000000  0.0000000 )       (  0.8116155 )
                  (  0.0000000  0.0000000  1.0000000 )       ( -0.8766342 )


      isym =  3     180 deg rotation - cart. axis [0,1,0]        

 cryst.   s( 3) = (    -1          0          0      )    f =(  0.5000000 )
                  (     0          1          0      )       (  0.5000000 )
                  (     0          0         -1      )       (  0.5000000 )

 cart.    s( 3) = ( -1.0000000  0.0000000  0.0000000 )    f =(  0.5000000 )
                  (  0.0000000  1.0000000  0.0000000 )       (  0.8116155 )
                  (  0.0000000  0.0000000 -1.0000000 )       (  0.8766342 )


      isym =  4     180 deg rotation - cart. axis [1,0,0]        

 cryst.   s( 4) = (     1          0          0      )    f =( -0.5000000 )
                  (     0         -1          0      )       ( -0.0000000 )
                  (     0          0         -1      )       (  0.0000000 )

 cart.    s( 4) = (  1.0000000  0.0000000  0.0000000 )    f =( -0.5000000 )
                  (  0.0000000 -1.0000000  0.0000000 )       ( -0.0000000 )
                  (  0.0000000  0.0000000 -1.0000000 )       (  0.0000000 )


      isym =  5     inversion                                    

 cryst.   s( 5) = (    -1          0          0      )
                  (     0         -1          0      )
                  (     0          0         -1      )

 cart.    s( 5) = ( -1.0000000  0.0000000  0.0000000 )
                  (  0.0000000 -1.0000000  0.0000000 )
                  (  0.0000000  0.0000000 -1.0000000 )


      isym =  6     inv. 180 deg rotation - cart. axis [0,0,1]   

 cryst.   s( 6) = (     1          0          0      )    f =(  0.0000000 )
                  (     0          1          0      )       (  0.5000000 )
                  (     0          0         -1      )       (  0.5000000 )

 cart.    s( 6) = (  1.0000000  0.0000000  0.0000000 )    f =(  0.0000000 )
                  (  0.0000000  1.0000000  0.0000000 )       (  0.8116155 )
                  (  0.0000000  0.0000000 -1.0000000 )       (  0.8766342 )


      isym =  7     inv. 180 deg rotation - cart. axis [0,1,0]   

 cryst.   s( 7) = (     1          0          0      )    f =( -0.5000000 )
                  (     0         -1          0      )       (  0.5000000 )
                  (     0          0          1      )       ( -0.5000000 )

 cart.    s( 7) = (  1.0000000  0.0000000  0.0000000 )    f =( -0.5000000 )
                  (  0.0000000 -1.0000000  0.0000000 )       (  0.8116155 )
                  (  0.0000000  0.0000000  1.0000000 )       ( -0.8766342 )


      isym =  8     inv. 180 deg rotation - cart. axis [1,0,0]   

 cryst.   s( 8) = (    -1          0          0      )    f =(  0.5000000 )
                  (     0          1          0      )       (  0.0000000 )
                  (     0          0          1      )       (  0.0000000 )

 cart.    s( 8) = ( -1.0000000  0.0000000  0.0000000 )    f =(  0.5000000 )
                  (  0.0000000  1.0000000  0.0000000 )       (  0.0000000 )
                  (  0.0000000  0.0000000  1.0000000 )       (  0.0000000 )


   Cartesian axes

     site n.     atom                  positions (alat units)
         1           Tb  tau(   1) = (   0.2500000   0.0155359   0.5395122  )
         2           Tb  tau(   2) = (   0.2500000   0.8271514   0.3371219  )
         3           Tb  tau(   3) = (   0.7500000   1.6076950   1.2137561  )
         4           Tb  tau(   4) = (   0.7500000   0.7960795   1.4161464  )
         5           Al  tau(   5) = (   0.2500000   0.2694677   1.6215155  )
         6           Al  tau(   6) = (   0.2500000   1.0810832   1.0083870  )
         7           Al  tau(   7) = (   0.7500000   1.3537632   0.1317529  )
         8           Al  tau(   8) = (   0.7500000   0.5421478   0.7448813  )
         9           Au  tau(   9) = (   0.2500000   0.4654745   1.0520539  )
        10           Au  tau(  10) = (   0.2500000   1.2770899   1.5778486  )
        11           Au  tau(  11) = (   0.7500000   1.1577565   0.7012144  )
        12           Au  tau(  12) = (   0.7500000   0.3461410   0.1754198  )

   Crystallographic axes

     site n.     atom                  positions (cryst. coord.)
         1           Tb  tau(   1) = (  0.2500000  0.0095710  0.3077180  )
         2           Tb  tau(   2) = (  0.2500000  0.5095710  0.1922820  )
         3           Tb  tau(   3) = (  0.7500000  0.9904290  0.6922820  )
         4           Tb  tau(   4) = (  0.7500000  0.4904290  0.8077180  )
         5           Al  tau(   5) = (  0.2500000  0.1660070  0.9248530  )
         6           Al  tau(   6) = (  0.2500000  0.6660070  0.5751470  )
         7           Al  tau(   7) = (  0.7500000  0.8339930  0.0751470  )
         8           Al  tau(   8) = (  0.7500000  0.3339930  0.4248530  )
         9           Au  tau(   9) = (  0.2500000  0.2867580  0.6000530  )
        10           Au  tau(  10) = (  0.2500000  0.7867580  0.8999470  )
        11           Au  tau(  11) = (  0.7500000  0.7132420  0.3999470  )
        12           Au  tau(  12) = (  0.7500000  0.2132420  0.1000530  )

     number of k points=     1  Methfessel-Paxton smearing, width (Ry)=  0.0010
                       cart. coord. in units 2pi/alat
        k(    1) = (   0.0000000   0.0000000   0.0000000), wk =   2.0000000

                       cryst. coord.
        k(    1) = (   0.0000000   0.0000000   0.0000000), wk =   2.0000000

     Dense  grid:    53716 G-vectors     FFT dimensions: (  48,  72,  80)

     Smooth grid:    18953 G-vectors     FFT dimensions: (  30,  48,  54)

     Dynamical RAM for                 wfc:       3.55 MB

     Dynamical RAM for     wfc (w. buffer):       3.55 MB

     Dynamical RAM for           str. fact:       2.46 MB

     Dynamical RAM for           local pot:       0.00 MB

     Dynamical RAM for          nlocal pot:      11.88 MB

     Dynamical RAM for                qrad:       8.96 MB

     Dynamical RAM for          rho,v,vnew:       8.79 MB

     Dynamical RAM for               rhoin:       2.93 MB

     Dynamical RAM for            rho*nmix:      13.11 MB

     Dynamical RAM for           G-vectors:       3.22 MB

     Dynamical RAM for          h,s,v(r/c):       0.88 MB

     Dynamical RAM for          <psi|beta>:       0.25 MB

     Dynamical RAM for                 psi:       7.10 MB

     Dynamical RAM for                hpsi:       7.10 MB

     Dynamical RAM for                spsi:       7.10 MB

     Dynamical RAM for      wfcinit/wfcrot:      14.11 MB

     Dynamical RAM for           addusdens:     458.18 MB

     Dynamical RAM for          addusforce:     463.56 MB

     Dynamical RAM for         addusstress:     477.03 MB

     Estimated static dynamical RAM per process >      55.61 MB

     Estimated max dynamical RAM per process >     545.75 MB

     Initial potential from superposition of free atoms

     starting charge     163.9728, renormalised to     164.0000
     Starting wfcs are  184 randomized atomic wfcs
     Checking if some PAW data can be deallocated... 

     total cpu time spent up to now is        7.5 secs

     Self-consistent Calculation

     iteration #  1     ecut=    30.00 Ry     beta= 0.70
     Davidson diagonalization with overlap

---- Real-time Memory Report at c_bands before calling an iterative solver
           749 MiB given to the printing process from OS
             0 MiB allocation reported by mallinfo(arena+hblkhd)
        113290 MiB available memory on the node where the printing process lives
------------------
     ethr =  1.00E-02,  avg # of iterations =  2.0

     total cpu time spent up to now is       10.6 secs

     total energy              =   -4134.29606637 Ry
     estimated scf accuracy    <      30.80047856 Ry

     iteration #  2     ecut=    30.00 Ry     beta= 0.70
     Davidson diagonalization with overlap

---- Real-time Memory Report at c_bands before calling an iterative solver
           796 MiB given to the printing process from OS
             0 MiB allocation reported by mallinfo(arena+hblkhd)
        113265 MiB available memory on the node where the printing process lives
------------------
     ethr =  1.00E-02,  avg # of iterations =  7.0

     total cpu time spent up to now is       14.4 secs

     total energy              =   -4179.04833963 Ry
     estimated scf accuracy    <     442.02646009 Ry

     iteration #  3     ecut=    30.00 Ry     beta= 0.70
     Davidson diagonalization with overlap

---- Real-time Memory Report at c_bands before calling an iterative solver
           804 MiB given to the printing process from OS
             0 MiB allocation reported by mallinfo(arena+hblkhd)
        113265 MiB available memory on the node where the printing process lives
------------------
     ethr =  1.00E-02,  avg # of iterations =  5.0

     total cpu time spent up to now is       17.7 secs

     total energy              =   -4173.04003432 Ry
     estimated scf accuracy    <     189.03084457 Ry

     iteration #  4     ecut=    30.00 Ry     beta= 0.70
     Davidson diagonalization with overlap

---- Real-time Memory Report at c_bands before calling an iterative solver
           804 MiB given to the printing process from OS
             0 MiB allocation reported by mallinfo(arena+hblkhd)
        113264 MiB available memory on the node where the printing process lives
------------------
     ethr =  1.00E-02,  avg # of iterations =  5.0

     total cpu time spent up to now is       21.0 secs

     total energy              =   -4172.82214463 Ry
     estimated scf accuracy    <      89.36046358 Ry

     iteration #  5     ecut=    30.00 Ry     beta= 0.70
     Davidson diagonalization with overlap

---- Real-time Memory Report at c_bands before calling an iterative solver
           804 MiB given to the printing process from OS
             0 MiB allocation reported by mallinfo(arena+hblkhd)
        113264 MiB available memory on the node where the printing process lives
------------------
     ethr =  1.00E-02,  avg # of iterations =  2.0

     total cpu time spent up to now is       24.0 secs

     total energy              =   -4171.11837519 Ry
     estimated scf accuracy    <      79.15172425 Ry

     iteration #  6     ecut=    30.00 Ry     beta= 0.70
     Davidson diagonalization with overlap

---- Real-time Memory Report at c_bands before calling an iterative solver
           805 MiB given to the printing process from OS
             0 MiB allocation reported by mallinfo(arena+hblkhd)
        113262 MiB available memory on the node where the printing process lives
------------------
     ethr =  1.00E-02,  avg # of iterations =  2.0

     total cpu time spent up to now is       27.3 secs

     total energy              =   -4171.35412391 Ry
     estimated scf accuracy    <      46.03174378 Ry

     iteration #  7     ecut=    30.00 Ry     beta= 0.70
     Davidson diagonalization with overlap

---- Real-time Memory Report at c_bands before calling an iterative solver
           806 MiB given to the printing process from OS
             0 MiB allocation reported by mallinfo(arena+hblkhd)
        113264 MiB available memory on the node where the printing process lives
------------------
     ethr =  1.00E-02,  avg # of iterations =  1.0

     total cpu time spent up to now is       30.3 secs

     total energy              =   -4171.55923487 Ry
     estimated scf accuracy    <      37.08598002 Ry

     iteration #  8     ecut=    30.00 Ry     beta= 0.70
     Davidson diagonalization with overlap

---- Real-time Memory Report at c_bands before calling an iterative solver
           806 MiB given to the printing process from OS
             0 MiB allocation reported by mallinfo(arena+hblkhd)
        113264 MiB available memory on the node where the printing process lives
------------------
     ethr =  1.00E-02,  avg # of iterations =  1.0

     total cpu time spent up to now is       34.0 secs

     total energy              =   -4171.56196545 Ry
     estimated scf accuracy    <      50.11708687 Ry

     iteration #  9     ecut=    30.00 Ry     beta= 0.70
     Davidson diagonalization with overlap

---- Real-time Memory Report at c_bands before calling an iterative solver
           806 MiB given to the printing process from OS
             0 MiB allocation reported by mallinfo(arena+hblkhd)
        113257 MiB available memory on the node where the printing process lives
------------------
     ethr =  1.00E-02,  avg # of iterations =  1.0

     total cpu time spent up to now is       37.7 secs

     total energy              =   -4171.44933836 Ry
     estimated scf accuracy    <      42.13800312 Ry

     iteration # 10     ecut=    30.00 Ry     beta= 0.70
     Davidson diagonalization with overlap

---- Real-time Memory Report at c_bands before calling an iterative solver
           806 MiB given to the printing process from OS
             0 MiB allocation reported by mallinfo(arena+hblkhd)
        113264 MiB available memory on the node where the printing process lives
------------------
     ethr =  1.00E-02,  avg # of iterations =  1.0

     total cpu time spent up to now is       40.6 secs

     total energy              =   -4164.61778303 Ry
     estimated scf accuracy    <      37.14132458 Ry

     iteration # 11     ecut=    30.00 Ry     beta= 0.70
     Davidson diagonalization with overlap

---- Real-time Memory Report at c_bands before calling an iterative solver
           806 MiB given to the printing process from OS
             0 MiB allocation reported by mallinfo(arena+hblkhd)
        113264 MiB available memory on the node where the printing process lives
------------------
     ethr =  1.00E-02,  avg # of iterations =  4.0

     total cpu time spent up to now is       43.8 secs

     total energy              =   -4172.47950422 Ry
     estimated scf accuracy    <       9.29434476 Ry

     iteration # 12     ecut=    30.00 Ry     beta= 0.70
     Davidson diagonalization with overlap

---- Real-time Memory Report at c_bands before calling an iterative solver
           806 MiB given to the printing process from OS
             0 MiB allocation reported by mallinfo(arena+hblkhd)
        113219 MiB available memory on the node where the printing process lives
------------------
     ethr =  5.67E-03,  avg # of iterations =  1.0

     total cpu time spent up to now is       46.8 secs

     total energy              =   -4170.86931784 Ry
     estimated scf accuracy    <      10.86359785 Ry

     iteration # 13     ecut=    30.00 Ry     beta= 0.70
     Davidson diagonalization with overlap

---- Real-time Memory Report at c_bands before calling an iterative solver
           806 MiB given to the printing process from OS
             0 MiB allocation reported by mallinfo(arena+hblkhd)
        113222 MiB available memory on the node where the printing process lives
------------------
     ethr =  5.67E-03,  avg # of iterations =  1.0

     total cpu time spent up to now is       49.8 secs

     total energy              =   -4169.66144222 Ry
     estimated scf accuracy    <       5.64148790 Ry

     iteration # 14     ecut=    30.00 Ry     beta= 0.70
     Davidson diagonalization with overlap

---- Real-time Memory Report at c_bands before calling an iterative solver
           806 MiB given to the printing process from OS
             0 MiB allocation reported by mallinfo(arena+hblkhd)
        113226 MiB available memory on the node where the printing process lives
------------------
     ethr =  3.44E-03,  avg # of iterations =  1.0

     total cpu time spent up to now is       52.8 secs

     total energy              =   -4170.27566460 Ry
     estimated scf accuracy    <      17.97161968 Ry

     iteration # 15     ecut=    30.00 Ry     beta= 0.70
     Davidson diagonalization with overlap

---- Real-time Memory Report at c_bands before calling an iterative solver
           806 MiB given to the printing process from OS
             0 MiB allocation reported by mallinfo(arena+hblkhd)
        113226 MiB available memory on the node where the printing process lives
------------------
     ethr =  3.44E-03,  avg # of iterations =  1.0

     total cpu time spent up to now is       55.7 secs

     total energy              =   -4169.87483901 Ry
     estimated scf accuracy    <      41.56603257 Ry

     iteration # 16     ecut=    30.00 Ry     beta= 0.70
     Davidson diagonalization with overlap

---- Real-time Memory Report at c_bands before calling an iterative solver
           806 MiB given to the printing process from OS
             0 MiB allocation reported by mallinfo(arena+hblkhd)
        113228 MiB available memory on the node where the printing process lives
------------------
     ethr =  3.44E-03,  avg # of iterations =  1.0

     total cpu time spent up to now is       58.7 secs

     total energy              =   -4170.55741855 Ry
     estimated scf accuracy    <       5.57692007 Ry

     iteration # 17     ecut=    30.00 Ry     beta= 0.70
     Davidson diagonalization with overlap

---- Real-time Memory Report at c_bands before calling an iterative solver
           806 MiB given to the printing process from OS
             0 MiB allocation reported by mallinfo(arena+hblkhd)
        113223 MiB available memory on the node where the printing process lives
------------------
     ethr =  3.40E-03,  avg # of iterations =  1.0

     total cpu time spent up to now is       61.7 secs

     total energy              =   -4170.17836431 Ry
     estimated scf accuracy    <     100.81372501 Ry

     iteration # 18     ecut=    30.00 Ry     beta= 0.70
     Davidson diagonalization with overlap

---- Real-time Memory Report at c_bands before calling an iterative solver
           806 MiB given to the printing process from OS
             0 MiB allocation reported by mallinfo(arena+hblkhd)
        113227 MiB available memory on the node where the printing process lives
------------------
     ethr =  3.40E-03,  avg # of iterations =  1.0

     total cpu time spent up to now is       64.7 secs

     total energy              =   -4170.28960863 Ry
     estimated scf accuracy    <      40.15399817 Ry

     iteration # 19     ecut=    30.00 Ry     beta= 0.70
     Davidson diagonalization with overlap

---- Real-time Memory Report at c_bands before calling an iterative solver
           806 MiB given to the printing process from OS
             0 MiB allocation reported by mallinfo(arena+hblkhd)
        113226 MiB available memory on the node where the printing process lives
------------------
     ethr =  3.40E-03,  avg # of iterations =  1.0

     total cpu time spent up to now is       67.6 secs

     total energy              =   -4169.66169894 Ry
     estimated scf accuracy    <      18.65976982 Ry

     iteration # 20     ecut=    30.00 Ry     beta= 0.70
     Davidson diagonalization with overlap

---- Real-time Memory Report at c_bands before calling an iterative solver
           806 MiB given to the printing process from OS
             0 MiB allocation reported by mallinfo(arena+hblkhd)
        113225 MiB available memory on the node where the printing process lives
------------------
     ethr =  3.40E-03,  avg # of iterations =  1.0

     total cpu time spent up to now is       70.6 secs

     total energy              =   -4170.17479058 Ry
     estimated scf accuracy    <       6.10677465 Ry

     iteration # 21     ecut=    30.00 Ry     beta= 0.70
     Davidson diagonalization with overlap

---- Real-time Memory Report at c_bands before calling an iterative solver
           806 MiB given to the printing process from OS
             0 MiB allocation reported by mallinfo(arena+hblkhd)
        113221 MiB available memory on the node where the printing process lives
------------------
     ethr =  3.40E-03,  avg # of iterations =  1.0

     total cpu time spent up to now is       73.6 secs

     total energy              =   -4170.09482788 Ry
     estimated scf accuracy    <      21.34288330 Ry

     iteration # 22     ecut=    30.00 Ry     beta= 0.70
     Davidson diagonalization with overlap

---- Real-time Memory Report at c_bands before calling an iterative solver
           806 MiB given to the printing process from OS
             0 MiB allocation reported by mallinfo(arena+hblkhd)
        113224 MiB available memory on the node where the printing process lives
------------------
     ethr =  3.40E-03,  avg # of iterations =  1.0

     total cpu time spent up to now is       76.6 secs

     total energy              =   -4170.05580736 Ry
     estimated scf accuracy    <      10.50915412 Ry

     iteration # 23     ecut=    30.00 Ry     beta= 0.70
     Davidson diagonalization with overlap

---- Real-time Memory Report at c_bands before calling an iterative solver
           807 MiB given to the printing process from OS
             0 MiB allocation reported by mallinfo(arena+hblkhd)
        113290 MiB available memory on the node where the printing process lives
------------------
     ethr =  3.40E-03,  avg # of iterations =  1.0

     total cpu time spent up to now is       79.6 secs

     total energy              =   -4170.19036494 Ry
     estimated scf accuracy    <      16.17125501 Ry

     iteration # 24     ecut=    30.00 Ry     beta= 0.70
     Davidson diagonalization with overlap

---- Real-time Memory Report at c_bands before calling an iterative solver
           807 MiB given to the printing process from OS
             0 MiB allocation reported by mallinfo(arena+hblkhd)
        113295 MiB available memory on the node where the printing process lives
------------------
     ethr =  3.40E-03,  avg # of iterations =  1.0

     total cpu time spent up to now is       82.5 secs

     total energy              =   -4170.15560169 Ry
     estimated scf accuracy    <       4.25071523 Ry

     iteration # 25     ecut=    30.00 Ry     beta= 0.70
     Davidson diagonalization with overlap

---- Real-time Memory Report at c_bands before calling an iterative solver
           807 MiB given to the printing process from OS
             0 MiB allocation reported by mallinfo(arena+hblkhd)
        113296 MiB available memory on the node where the printing process lives
------------------
     ethr =  2.59E-03,  avg # of iterations =  1.0

     total cpu time spent up to now is       85.5 secs

     total energy              =   -4170.10732138 Ry
     estimated scf accuracy    <      60.85589237 Ry

     iteration # 26     ecut=    30.00 Ry     beta= 0.70
     Davidson diagonalization with overlap

---- Real-time Memory Report at c_bands before calling an iterative solver
           807 MiB given to the printing process from OS
             0 MiB allocation reported by mallinfo(arena+hblkhd)
        113294 MiB available memory on the node where the printing process lives
------------------
     ethr =  2.59E-03,  avg # of iterations =  1.0

     total cpu time spent up to now is       88.4 secs

     total energy              =   -4170.08831919 Ry
     estimated scf accuracy    <       5.10734220 Ry

     iteration # 27     ecut=    30.00 Ry     beta= 0.70
     Davidson diagonalization with overlap

---- Real-time Memory Report at c_bands before calling an iterative solver
           807 MiB given to the printing process from OS
             0 MiB allocation reported by mallinfo(arena+hblkhd)
        113343 MiB available memory on the node where the printing process lives
------------------
     ethr =  2.59E-03,  avg # of iterations =  1.0

     total cpu time spent up to now is       91.4 secs

     total energy              =   -4170.19012322 Ry
     estimated scf accuracy    <       0.93703099 Ry

     iteration # 28     ecut=    30.00 Ry     beta= 0.70
     Davidson diagonalization with overlap

---- Real-time Memory Report at c_bands before calling an iterative solver
           807 MiB given to the printing process from OS
             0 MiB allocation reported by mallinfo(arena+hblkhd)
        113351 MiB available memory on the node where the printing process lives
------------------
     ethr =  5.71E-04,  avg # of iterations =  1.0

     total cpu time spent up to now is       94.4 secs

     total energy              =   -4170.11976571 Ry
     estimated scf accuracy    <      19.82658064 Ry

     iteration # 29     ecut=    30.00 Ry     beta= 0.70
     Davidson diagonalization with overlap

---- Real-time Memory Report at c_bands before calling an iterative solver
           807 MiB given to the printing process from OS
             0 MiB allocation reported by mallinfo(arena+hblkhd)
        113351 MiB available memory on the node where the printing process lives
------------------
     ethr =  5.71E-04,  avg # of iterations =  2.0

     total cpu time spent up to now is       97.4 secs

     total energy              =   -4169.89209154 Ry
     estimated scf accuracy    <      62.02024648 Ry

     iteration # 30     ecut=    30.00 Ry     beta= 0.70
     Davidson diagonalization with overlap

---- Real-time Memory Report at c_bands before calling an iterative solver
           807 MiB given to the printing process from OS
             0 MiB allocation reported by mallinfo(arena+hblkhd)
        113352 MiB available memory on the node where the printing process lives
------------------
     ethr =  5.71E-04,  avg # of iterations =  2.0

     total cpu time spent up to now is      100.4 secs

     total energy              =   -4170.14025284 Ry
     estimated scf accuracy    <       7.64656497 Ry

     iteration # 31     ecut=    30.00 Ry     beta= 0.70
     Davidson diagonalization with overlap

---- Real-time Memory Report at c_bands before calling an iterative solver
           807 MiB given to the printing process from OS
             0 MiB allocation reported by mallinfo(arena+hblkhd)
        113350 MiB available memory on the node where the printing process lives
------------------
     ethr =  5.71E-04,  avg # of iterations =  1.0

     total cpu time spent up to now is      103.3 secs

     total energy              =   -4170.12665482 Ry
     estimated scf accuracy    <       1.60034041 Ry

     iteration # 32     ecut=    30.00 Ry     beta= 0.70
     Davidson diagonalization with overlap

---- Real-time Memory Report at c_bands before calling an iterative solver
           807 MiB given to the printing process from OS
             0 MiB allocation reported by mallinfo(arena+hblkhd)
        113350 MiB available memory on the node where the printing process lives
------------------
     ethr =  5.71E-04,  avg # of iterations =  2.0

     total cpu time spent up to now is      106.3 secs

     total energy              =   -4169.96594856 Ry
     estimated scf accuracy    <      48.56264770 Ry

     iteration # 33     ecut=    30.00 Ry     beta= 0.70
     Davidson diagonalization with overlap

---- Real-time Memory Report at c_bands before calling an iterative solver
           807 MiB given to the printing process from OS
             0 MiB allocation reported by mallinfo(arena+hblkhd)
        113351 MiB available memory on the node where the printing process lives
------------------
     ethr =  5.71E-04,  avg # of iterations =  2.0

     total cpu time spent up to now is      109.5 secs

     total energy              =   -4170.12005966 Ry
     estimated scf accuracy    <       0.23512458 Ry

     iteration # 34     ecut=    30.00 Ry     beta= 0.70
     Davidson diagonalization with overlap

---- Real-time Memory Report at c_bands before calling an iterative solver
           807 MiB given to the printing process from OS
             0 MiB allocation reported by mallinfo(arena+hblkhd)
        113310 MiB available memory on the node where the printing process lives
------------------
     ethr =  1.43E-04,  avg # of iterations =  2.0

     total cpu time spent up to now is      112.5 secs

     total energy              =   -4170.10058341 Ry
     estimated scf accuracy    <      23.15609832 Ry

     iteration # 35     ecut=    30.00 Ry     beta= 0.70
     Davidson diagonalization with overlap

---- Real-time Memory Report at c_bands before calling an iterative solver
           807 MiB given to the printing process from OS
             0 MiB allocation reported by mallinfo(arena+hblkhd)
        113310 MiB available memory on the node where the printing process lives
------------------
     ethr =  1.43E-04,  avg # of iterations =  2.0

     total cpu time spent up to now is      115.4 secs

     total energy              =   -4170.16744578 Ry
     estimated scf accuracy    <      30.16010550 Ry

     iteration # 36     ecut=    30.00 Ry     beta= 0.70
     Davidson diagonalization with overlap

---- Real-time Memory Report at c_bands before calling an iterative solver
           807 MiB given to the printing process from OS
             0 MiB allocation reported by mallinfo(arena+hblkhd)
        113311 MiB available memory on the node where the printing process lives
------------------
     ethr =  1.43E-04,  avg # of iterations =  1.0

     total cpu time spent up to now is      118.3 secs

     total energy              =   -4170.16715956 Ry
     estimated scf accuracy    <       9.65066789 Ry

     iteration # 37     ecut=    30.00 Ry     beta= 0.70
     Davidson diagonalization with overlap

---- Real-time Memory Report at c_bands before calling an iterative solver
           807 MiB given to the printing process from OS
             0 MiB allocation reported by mallinfo(arena+hblkhd)
        113312 MiB available memory on the node where the printing process lives
------------------
     ethr =  1.43E-04,  avg # of iterations =  1.0
     Minimization algorithm failed to find Fermi energy: reverting to bisection
     Possible cause: smearing is larger than the electronic band-gap.

     total cpu time spent up to now is      121.3 secs

     total energy              =   -4170.24098235 Ry
     estimated scf accuracy    <       4.10525804 Ry

     iteration # 38     ecut=    30.00 Ry     beta= 0.70
     Davidson diagonalization with overlap

---- Real-time Memory Report at c_bands before calling an iterative solver
           807 MiB given to the printing process from OS
             0 MiB allocation reported by mallinfo(arena+hblkhd)
        113311 MiB available memory on the node where the printing process lives
------------------
     ethr =  1.43E-04,  avg # of iterations =  1.0

     total cpu time spent up to now is      125.8 secs

     total energy              =   -4170.14300911 Ry
     estimated scf accuracy    <      21.96089055 Ry

     iteration # 39     ecut=    30.00 Ry     beta= 0.70
     Davidson diagonalization with overlap

---- Real-time Memory Report at c_bands before calling an iterative solver
           807 MiB given to the printing process from OS
             0 MiB allocation reported by mallinfo(arena+hblkhd)
        113302 MiB available memory on the node where the printing process lives
------------------
     ethr =  1.43E-04,  avg # of iterations =  1.0

     total cpu time spent up to now is      128.8 secs

     total energy              =   -4170.21860184 Ry
     estimated scf accuracy    <       3.55002405 Ry

     iteration # 40     ecut=    30.00 Ry     beta= 0.70
     Davidson diagonalization with overlap

---- Real-time Memory Report at c_bands before calling an iterative solver
           807 MiB given to the printing process from OS
             0 MiB allocation reported by mallinfo(arena+hblkhd)
        113305 MiB available memory on the node where the printing process lives
------------------
     ethr =  1.43E-04,  avg # of iterations =  1.0

     total cpu time spent up to now is      131.7 secs

     total energy              =   -4170.18861014 Ry
     estimated scf accuracy    <       2.34779376 Ry

     iteration # 41     ecut=    30.00 Ry     beta= 0.70
     Davidson diagonalization with overlap

---- Real-time Memory Report at c_bands before calling an iterative solver
           807 MiB given to the printing process from OS
             0 MiB allocation reported by mallinfo(arena+hblkhd)
        113305 MiB available memory on the node where the printing process lives
------------------
     ethr =  1.43E-04,  avg # of iterations =  1.0

     total cpu time spent up to now is      134.7 secs

     total energy              =   -4170.14400546 Ry
     estimated scf accuracy    <       1.72809749 Ry

     iteration # 42     ecut=    30.00 Ry     beta= 0.70
     Davidson diagonalization with overlap

---- Real-time Memory Report at c_bands before calling an iterative solver
           807 MiB given to the printing process from OS
             0 MiB allocation reported by mallinfo(arena+hblkhd)
        113307 MiB available memory on the node where the printing process lives
------------------
     ethr =  1.43E-04,  avg # of iterations =  1.0

     total cpu time spent up to now is      137.7 secs

     total energy              =   -4170.11473825 Ry
     estimated scf accuracy    <       0.94436371 Ry

     iteration # 43     ecut=    30.00 Ry     beta= 0.70
     Davidson diagonalization with overlap

---- Real-time Memory Report at c_bands before calling an iterative solver
           807 MiB given to the printing process from OS
             0 MiB allocation reported by mallinfo(arena+hblkhd)
        113309 MiB available memory on the node where the printing process lives
------------------
     ethr =  1.43E-04,  avg # of iterations =  2.0

     total cpu time spent up to now is      140.7 secs

     total energy              =   -4170.13734186 Ry
     estimated scf accuracy    <      12.27239873 Ry

     iteration # 44     ecut=    30.00 Ry     beta= 0.70
     Davidson diagonalization with overlap

---- Real-time Memory Report at c_bands before calling an iterative solver
           807 MiB given to the printing process from OS
             0 MiB allocation reported by mallinfo(arena+hblkhd)
        113308 MiB available memory on the node where the printing process lives
------------------
     ethr =  1.43E-04,  avg # of iterations =  2.0

     total cpu time spent up to now is      143.6 secs

     total energy              =   -4170.19940599 Ry
     estimated scf accuracy    <       3.32326103 Ry

     iteration # 45     ecut=    30.00 Ry     beta= 0.70
     Davidson diagonalization with overlap

---- Real-time Memory Report at c_bands before calling an iterative solver
           807 MiB given to the printing process from OS
             0 MiB allocation reported by mallinfo(arena+hblkhd)
        113309 MiB available memory on the node where the printing process lives
------------------
     ethr =  1.43E-04,  avg # of iterations =  2.0

     total cpu time spent up to now is      146.6 secs

     total energy              =   -4170.14935883 Ry
     estimated scf accuracy    <      33.87470437 Ry

     iteration # 46     ecut=    30.00 Ry     beta= 0.70
     Davidson diagonalization with overlap

---- Real-time Memory Report at c_bands before calling an iterative solver
           807 MiB given to the printing process from OS
             0 MiB allocation reported by mallinfo(arena+hblkhd)
        113309 MiB available memory on the node where the printing process lives
------------------
     ethr =  1.43E-04,  avg # of iterations =  1.0

     total cpu time spent up to now is      149.6 secs

     total energy              =   -4170.18152443 Ry
     estimated scf accuracy    <      19.45527738 Ry

     iteration # 47     ecut=    30.00 Ry     beta= 0.70
     Davidson diagonalization with overlap

---- Real-time Memory Report at c_bands before calling an iterative solver
           807 MiB given to the printing process from OS
             0 MiB allocation reported by mallinfo(arena+hblkhd)
        113310 MiB available memory on the node where the printing process lives
------------------
     ethr =  1.43E-04,  avg # of iterations =  1.0

     total cpu time spent up to now is      152.5 secs

     total energy              =   -4170.21611089 Ry
     estimated scf accuracy    <       3.81015032 Ry

     iteration # 48     ecut=    30.00 Ry     beta= 0.70
     Davidson diagonalization with overlap

---- Real-time Memory Report at c_bands before calling an iterative solver
           807 MiB given to the printing process from OS
             0 MiB allocation reported by mallinfo(arena+hblkhd)
        113309 MiB available memory on the node where the printing process lives
------------------
     ethr =  1.43E-04,  avg # of iterations =  1.0

     total cpu time spent up to now is      155.5 secs

     total energy              =   -4170.18754636 Ry
     estimated scf accuracy    <      13.87738498 Ry

     iteration # 49     ecut=    30.00 Ry     beta= 0.70
     Davidson diagonalization with overlap

---- Real-time Memory Report at c_bands before calling an iterative solver
           807 MiB given to the printing process from OS
             0 MiB allocation reported by mallinfo(arena+hblkhd)
        113309 MiB available memory on the node where the printing process lives
------------------
     ethr =  1.43E-04,  avg # of iterations =  1.0

     total cpu time spent up to now is      158.4 secs

     total energy              =   -4170.18342040 Ry
     estimated scf accuracy    <      10.97236243 Ry

     iteration # 50     ecut=    30.00 Ry     beta= 0.70
     Davidson diagonalization with overlap

---- Real-time Memory Report at c_bands before calling an iterative solver
           807 MiB given to the printing process from OS
             0 MiB allocation reported by mallinfo(arena+hblkhd)
        113307 MiB available memory on the node where the printing process lives
------------------
     ethr =  1.43E-04,  avg # of iterations =  1.0

     total cpu time spent up to now is      161.4 secs

     total energy              =   -4170.15574662 Ry
     estimated scf accuracy    <      10.27746505 Ry

     iteration # 51     ecut=    30.00 Ry     beta= 0.70
     Davidson diagonalization with overlap

---- Real-time Memory Report at c_bands before calling an iterative solver
           807 MiB given to the printing process from OS
             0 MiB allocation reported by mallinfo(arena+hblkhd)
        113307 MiB available memory on the node where the printing process lives
------------------
     ethr =  1.43E-04,  avg # of iterations =  1.0

     total cpu time spent up to now is      164.4 secs

     total energy              =   -4170.11143203 Ry
     estimated scf accuracy    <       1.08041737 Ry

     iteration # 52     ecut=    30.00 Ry     beta= 0.70
     Davidson diagonalization with overlap

---- Real-time Memory Report at c_bands before calling an iterative solver
           807 MiB given to the printing process from OS
             0 MiB allocation reported by mallinfo(arena+hblkhd)
        113290 MiB available memory on the node where the printing process lives
------------------
     ethr =  1.43E-04,  avg # of iterations =  7.0

     total cpu time spent up to now is      167.6 secs

     total energy              =   -4169.97945517 Ry
     estimated scf accuracy    <       7.47159625 Ry

     iteration # 53     ecut=    30.00 Ry     beta= 0.70
     Davidson diagonalization with overlap

---- Real-time Memory Report at c_bands before calling an iterative solver
           807 MiB given to the printing process from OS
             0 MiB allocation reported by mallinfo(arena+hblkhd)
        113291 MiB available memory on the node where the printing process lives
------------------
     ethr =  1.43E-04,  avg # of iterations =  5.0

     total cpu time spent up to now is      170.7 secs

     total energy              =   -4170.18377088 Ry
     estimated scf accuracy    <       0.56841995 Ry

     iteration # 54     ecut=    30.00 Ry     beta= 0.70
     Davidson diagonalization with overlap

---- Real-time Memory Report at c_bands before calling an iterative solver
           807 MiB given to the printing process from OS
             0 MiB allocation reported by mallinfo(arena+hblkhd)
        113292 MiB available memory on the node where the printing process lives
------------------
     ethr =  1.43E-04,  avg # of iterations =  2.0

     total cpu time spent up to now is      173.7 secs

     total energy              =   -4170.13706811 Ry
     estimated scf accuracy    <       6.23549257 Ry

     iteration # 55     ecut=    30.00 Ry     beta= 0.70
     Davidson diagonalization with overlap

---- Real-time Memory Report at c_bands before calling an iterative solver
           807 MiB given to the printing process from OS
             0 MiB allocation reported by mallinfo(arena+hblkhd)
        113292 MiB available memory on the node where the printing process lives
------------------
     ethr =  1.43E-04,  avg # of iterations =  1.0

     total cpu time spent up to now is      176.7 secs

     WARNING: integrated charge=   164.00008914, expected=   164.00000000

     total energy              =   -4170.18692856 Ry
     estimated scf accuracy    <      11.47011863 Ry

     iteration # 56     ecut=    30.00 Ry     beta= 0.70
     Davidson diagonalization with overlap

---- Real-time Memory Report at c_bands before calling an iterative solver
           807 MiB given to the printing process from OS
             0 MiB allocation reported by mallinfo(arena+hblkhd)
        113292 MiB available memory on the node where the printing process lives
------------------
     ethr =  1.43E-04,  avg # of iterations =  1.0

     total cpu time spent up to now is      179.7 secs

     WARNING: integrated charge=   164.00010964, expected=   164.00000000

     total energy              =   -4170.21132158 Ry
     estimated scf accuracy    <       3.36342493 Ry

     iteration # 57     ecut=    30.00 Ry     beta= 0.70
     Davidson diagonalization with overlap

---- Real-time Memory Report at c_bands before calling an iterative solver
           807 MiB given to the printing process from OS
             0 MiB allocation reported by mallinfo(arena+hblkhd)
        113294 MiB available memory on the node where the printing process lives
------------------
     ethr =  1.43E-04,  avg # of iterations =  1.0

     total cpu time spent up to now is      182.6 secs

     WARNING: integrated charge=   164.00013210, expected=   164.00000000

     total energy              =   -4170.14779798 Ry
     estimated scf accuracy    <      35.56180377 Ry

     iteration # 58     ecut=    30.00 Ry     beta= 0.70
     Davidson diagonalization with overlap

---- Real-time Memory Report at c_bands before calling an iterative solver
           807 MiB given to the printing process from OS
             0 MiB allocation reported by mallinfo(arena+hblkhd)
        113292 MiB available memory on the node where the printing process lives
------------------
     ethr =  1.43E-04,  avg # of iterations =  1.0

     total cpu time spent up to now is      185.6 secs

     WARNING: integrated charge=   164.00006422, expected=   164.00000000

     total energy              =   -4170.20297240 Ry
     estimated scf accuracy    <       4.73543920 Ry

     iteration # 59     ecut=    30.00 Ry     beta= 0.70
     Davidson diagonalization with overlap

---- Real-time Memory Report at c_bands before calling an iterative solver
           807 MiB given to the printing process from OS
             0 MiB allocation reported by mallinfo(arena+hblkhd)
        113291 MiB available memory on the node where the printing process lives
------------------
     ethr =  1.43E-04,  avg # of iterations =  2.0

     total cpu time spent up to now is      188.6 secs

     WARNING: integrated charge=   164.00032762, expected=   164.00000000

     total energy              =   -4170.10293573 Ry
     estimated scf accuracy    <      59.29810546 Ry

     iteration # 60     ecut=    30.00 Ry     beta= 0.70
     Davidson diagonalization with overlap

---- Real-time Memory Report at c_bands before calling an iterative solver
           807 MiB given to the printing process from OS
             0 MiB allocation reported by mallinfo(arena+hblkhd)
        113292 MiB available memory on the node where the printing process lives
------------------
     ethr =  1.43E-04,  avg # of iterations =  2.0

     total cpu time spent up to now is      191.5 secs

     WARNING: integrated charge=   164.00025789, expected=   164.00000000

     total energy              =   -4170.17506897 Ry
     estimated scf accuracy    <       8.47535841 Ry

     iteration # 61     ecut=    30.00 Ry     beta= 0.70
     Davidson diagonalization with overlap

---- Real-time Memory Report at c_bands before calling an iterative solver
           807 MiB given to the printing process from OS
             0 MiB allocation reported by mallinfo(arena+hblkhd)
        113292 MiB available memory on the node where the printing process lives
------------------
     ethr =  1.43E-04,  avg # of iterations =  1.0

     total cpu time spent up to now is      194.5 secs

     WARNING: integrated charge=   164.00021672, expected=   164.00000000

     total energy              =   -4170.14596751 Ry
     estimated scf accuracy    <       1.36439176 Ry

     iteration # 62     ecut=    30.00 Ry     beta= 0.70
     Davidson diagonalization with overlap

---- Real-time Memory Report at c_bands before calling an iterative solver
           807 MiB given to the printing process from OS
             0 MiB allocation reported by mallinfo(arena+hblkhd)
        113293 MiB available memory on the node where the printing process lives
------------------
     ethr =  1.43E-04,  avg # of iterations =  1.0

     total cpu time spent up to now is      197.8 secs

     WARNING: integrated charge=   164.00030598, expected=   164.00000000

     total energy              =   -4170.20215207 Ry
     estimated scf accuracy    <       0.67374309 Ry

     iteration # 63     ecut=    30.00 Ry     beta= 0.70
     Davidson diagonalization with overlap

---- Real-time Memory Report at c_bands before calling an iterative solver
           807 MiB given to the printing process from OS
             0 MiB allocation reported by mallinfo(arena+hblkhd)
        113293 MiB available memory on the node where the printing process lives
------------------
     ethr =  1.43E-04,  avg # of iterations =  1.0

     total cpu time spent up to now is      200.7 secs

     WARNING: integrated charge=   164.00025866, expected=   164.00000000

     total energy              =   -4170.15100487 Ry
     estimated scf accuracy    <       4.97624705 Ry

     iteration # 64     ecut=    30.00 Ry     beta= 0.70
     Davidson diagonalization with overlap

---- Real-time Memory Report at c_bands before calling an iterative solver
           807 MiB given to the printing process from OS
             0 MiB allocation reported by mallinfo(arena+hblkhd)
        113291 MiB available memory on the node where the printing process lives
------------------
     ethr =  1.43E-04,  avg # of iterations =  1.0

     total cpu time spent up to now is      203.7 secs

     WARNING: integrated charge=   164.00006460, expected=   164.00000000

     total energy              =   -4170.16824861 Ry
     estimated scf accuracy    <       2.76257932 Ry

     iteration # 65     ecut=    30.00 Ry     beta= 0.70
     Davidson diagonalization with overlap

---- Real-time Memory Report at c_bands before calling an iterative solver
           807 MiB given to the printing process from OS
             0 MiB allocation reported by mallinfo(arena+hblkhd)
        113290 MiB available memory on the node where the printing process lives
------------------
     ethr =  1.43E-04,  avg # of iterations =  2.0

     total cpu time spent up to now is      206.6 secs

     WARNING: integrated charge=   164.00005973, expected=   164.00000000

     total energy              =   -4170.16566367 Ry
     estimated scf accuracy    <      17.14090986 Ry

     iteration # 66     ecut=    30.00 Ry     beta= 0.70
     Davidson diagonalization with overlap

---- Real-time Memory Report at c_bands before calling an iterative solver
           807 MiB given to the printing process from OS
             0 MiB allocation reported by mallinfo(arena+hblkhd)
        113291 MiB available memory on the node where the printing process lives
------------------
     ethr =  1.43E-04,  avg # of iterations =  1.0

     total cpu time spent up to now is      209.6 secs

     WARNING: integrated charge=   164.00006466, expected=   164.00000000

     total energy              =   -4170.16951740 Ry
     estimated scf accuracy    <      18.31004802 Ry

     iteration # 67     ecut=    30.00 Ry     beta= 0.70
     Davidson diagonalization with overlap

---- Real-time Memory Report at c_bands before calling an iterative solver
           807 MiB given to the printing process from OS
             0 MiB allocation reported by mallinfo(arena+hblkhd)
        113341 MiB available memory on the node where the printing process lives
------------------
     ethr =  1.43E-04,  avg # of iterations =  1.0

     total cpu time spent up to now is      213.4 secs

     WARNING: integrated charge=   164.00006721, expected=   164.00000000

     total energy              =   -4170.15769203 Ry
     estimated scf accuracy    <      28.35335747 Ry

     iteration # 68     ecut=    30.00 Ry     beta= 0.70
     Davidson diagonalization with overlap

---- Real-time Memory Report at c_bands before calling an iterative solver
           807 MiB given to the printing process from OS
             0 MiB allocation reported by mallinfo(arena+hblkhd)
        113329 MiB available memory on the node where the printing process lives
------------------
     ethr =  1.43E-04,  avg # of iterations =  1.0

     total cpu time spent up to now is      217.2 secs

     WARNING: integrated charge=   164.00006007, expected=   164.00000000

     total energy              =   -4170.17007526 Ry
     estimated scf accuracy    <       8.56778449 Ry

     iteration # 69     ecut=    30.00 Ry     beta= 0.70
     Davidson diagonalization with overlap

---- Real-time Memory Report at c_bands before calling an iterative solver
           807 MiB given to the printing process from OS
             0 MiB allocation reported by mallinfo(arena+hblkhd)
        113334 MiB available memory on the node where the printing process lives
------------------
     ethr =  1.43E-04,  avg # of iterations =  1.0

     total cpu time spent up to now is      220.2 secs

     WARNING: integrated charge=   164.00005472, expected=   164.00000000

     total energy              =   -4170.19419139 Ry
     estimated scf accuracy    <       3.05605567 Ry

     iteration # 70     ecut=    30.00 Ry     beta= 0.70
     Davidson diagonalization with overlap

---- Real-time Memory Report at c_bands before calling an iterative solver
           807 MiB given to the printing process from OS
             0 MiB allocation reported by mallinfo(arena+hblkhd)
        113338 MiB available memory on the node where the printing process lives
------------------
     ethr =  1.43E-04,  avg # of iterations =  1.0

     total cpu time spent up to now is      223.1 secs

     WARNING: integrated charge=   164.00004259, expected=   164.00000000

     total energy              =   -4170.15331408 Ry
     estimated scf accuracy    <      19.26638979 Ry

     iteration # 71     ecut=    30.00 Ry     beta= 0.70
     Davidson diagonalization with overlap

---- Real-time Memory Report at c_bands before calling an iterative solver
           807 MiB given to the printing process from OS
             0 MiB allocation reported by mallinfo(arena+hblkhd)
        113341 MiB available memory on the node where the printing process lives
------------------
     ethr =  1.43E-04,  avg # of iterations =  1.0

     total cpu time spent up to now is      226.1 secs

     WARNING: integrated charge=   164.00002977, expected=   164.00000000

     total energy              =   -4170.11445912 Ry
     estimated scf accuracy    <       1.33505620 Ry

     iteration # 72     ecut=    30.00 Ry     beta= 0.70
     Davidson diagonalization with overlap

---- Real-time Memory Report at c_bands before calling an iterative solver
           807 MiB given to the printing process from OS
             0 MiB allocation reported by mallinfo(arena+hblkhd)
        113341 MiB available memory on the node where the printing process lives
------------------
     ethr =  1.43E-04,  avg # of iterations =  7.0

     total cpu time spent up to now is      229.5 secs

     WARNING: integrated charge=   164.00002360, expected=   164.00000000

     total energy              =   -4169.99052797 Ry
     estimated scf accuracy    <       9.30610421 Ry

     iteration # 73     ecut=    30.00 Ry     beta= 0.70
     Davidson diagonalization with overlap

---- Real-time Memory Report at c_bands before calling an iterative solver
           807 MiB given to the printing process from OS
             0 MiB allocation reported by mallinfo(arena+hblkhd)
        113338 MiB available memory on the node where the printing process lives
------------------
     ethr =  1.43E-04,  avg # of iterations =  5.0

     total cpu time spent up to now is      232.5 secs

     total energy              =   -4170.14986381 Ry
     estimated scf accuracy    <       1.77650454 Ry

     iteration # 74     ecut=    30.00 Ry     beta= 0.70
     Davidson diagonalization with overlap

---- Real-time Memory Report at c_bands before calling an iterative solver
           807 MiB given to the printing process from OS
             0 MiB allocation reported by mallinfo(arena+hblkhd)
        113340 MiB available memory on the node where the printing process lives
------------------
     ethr =  1.43E-04,  avg # of iterations =  2.0

     total cpu time spent up to now is      235.5 secs

     total energy              =   -4170.13203346 Ry
     estimated scf accuracy    <       2.20498523 Ry

     iteration # 75     ecut=    30.00 Ry     beta= 0.70
     Davidson diagonalization with overlap

---- Real-time Memory Report at c_bands before calling an iterative solver
           807 MiB given to the printing process from OS
             0 MiB allocation reported by mallinfo(arena+hblkhd)
        113342 MiB available memory on the node where the printing process lives
------------------
     ethr =  1.43E-04,  avg # of iterations =  2.0

     total cpu time spent up to now is      238.4 secs

     total energy              =   -4170.16684119 Ry
     estimated scf accuracy    <      16.19064165 Ry

     iteration # 76     ecut=    30.00 Ry     beta= 0.70
     Davidson diagonalization with overlap

---- Real-time Memory Report at c_bands before calling an iterative solver
           807 MiB given to the printing process from OS
             0 MiB allocation reported by mallinfo(arena+hblkhd)
        113342 MiB available memory on the node where the printing process lives
------------------
     ethr =  1.43E-04,  avg # of iterations =  1.0

     total cpu time spent up to now is      241.4 secs

     total energy              =   -4170.16304308 Ry
     estimated scf accuracy    <      24.29545234 Ry

     iteration # 77     ecut=    30.00 Ry     beta= 0.70
     Davidson diagonalization with overlap

---- Real-time Memory Report at c_bands before calling an iterative solver
           807 MiB given to the printing process from OS
             0 MiB allocation reported by mallinfo(arena+hblkhd)
        113340 MiB available memory on the node where the printing process lives
------------------
     ethr =  1.43E-04,  avg # of iterations =  1.0

     total cpu time spent up to now is      244.4 secs

     total energy              =   -4170.14744064 Ry
     estimated scf accuracy    <      40.57151315 Ry

     iteration # 78     ecut=    30.00 Ry     beta= 0.70
     Davidson diagonalization with overlap

---- Real-time Memory Report at c_bands before calling an iterative solver
           807 MiB given to the printing process from OS
             0 MiB allocation reported by mallinfo(arena+hblkhd)
        113340 MiB available memory on the node where the printing process lives
------------------
     ethr =  1.43E-04,  avg # of iterations =  1.0

     total cpu time spent up to now is      247.4 secs

     total energy              =   -4170.15408984 Ry
     estimated scf accuracy    <       8.08898352 Ry

     iteration # 79     ecut=    30.00 Ry     beta= 0.70
     Davidson diagonalization with overlap

---- Real-time Memory Report at c_bands before calling an iterative solver
           807 MiB given to the printing process from OS
             0 MiB allocation reported by mallinfo(arena+hblkhd)
        113338 MiB available memory on the node where the printing process lives
------------------
     ethr =  1.43E-04,  avg # of iterations =  2.0

     total cpu time spent up to now is      250.4 secs

     total energy              =   -4170.10475004 Ry
     estimated scf accuracy    <      46.89405072 Ry

     iteration # 80     ecut=    30.00 Ry     beta= 0.70
     Davidson diagonalization with overlap

---- Real-time Memory Report at c_bands before calling an iterative solver
           807 MiB given to the printing process from OS
             0 MiB allocation reported by mallinfo(arena+hblkhd)
        113338 MiB available memory on the node where the printing process lives
------------------
     ethr =  1.43E-04,  avg # of iterations =  1.0

     total cpu time spent up to now is      253.3 secs

     total energy              =   -4170.13556973 Ry
     estimated scf accuracy    <      12.14106698 Ry

     iteration # 81     ecut=    30.00 Ry     beta= 0.70
     Davidson diagonalization with overlap

---- Real-time Memory Report at c_bands before calling an iterative solver
           807 MiB given to the printing process from OS
             0 MiB allocation reported by mallinfo(arena+hblkhd)
        113340 MiB available memory on the node where the printing process lives
------------------
     ethr =  1.43E-04,  avg # of iterations =  1.0

     total cpu time spent up to now is      256.3 secs

     total energy              =   -4170.11994623 Ry
     estimated scf accuracy    <       1.89222882 Ry

     iteration # 82     ecut=    30.00 Ry     beta= 0.70
     Davidson diagonalization with overlap

---- Real-time Memory Report at c_bands before calling an iterative solver
           807 MiB given to the printing process from OS
             0 MiB allocation reported by mallinfo(arena+hblkhd)
        113308 MiB available memory on the node where the printing process lives
------------------
     ethr =  1.43E-04,  avg # of iterations =  2.0

     total cpu time spent up to now is      260.7 secs

     total energy              =   -4170.16285848 Ry
     estimated scf accuracy    <       1.43897049 Ry

     iteration # 83     ecut=    30.00 Ry     beta= 0.70
     Davidson diagonalization with overlap

---- Real-time Memory Report at c_bands before calling an iterative solver
           807 MiB given to the printing process from OS
             0 MiB allocation reported by mallinfo(arena+hblkhd)
        113287 MiB available memory on the node where the printing process lives
------------------
     ethr =  1.43E-04,  avg # of iterations =  2.0

     total cpu time spent up to now is      263.7 secs

     total energy              =   -4170.08380732 Ry
     estimated scf accuracy    <       7.91273009 Ry

     iteration # 84     ecut=    30.00 Ry     beta= 0.70
     Davidson diagonalization with overlap

---- Real-time Memory Report at c_bands before calling an iterative solver
           807 MiB given to the printing process from OS
             0 MiB allocation reported by mallinfo(arena+hblkhd)
        113288 MiB available memory on the node where the printing process lives
------------------
     ethr =  1.43E-04,  avg # of iterations =  1.0

     total cpu time spent up to now is      266.6 secs

     total energy              =   -4170.05221927 Ry
     estimated scf accuracy    <       2.14537075 Ry

     iteration # 85     ecut=    30.00 Ry     beta= 0.70
     Davidson diagonalization with overlap

---- Real-time Memory Report at c_bands before calling an iterative solver
           807 MiB given to the printing process from OS
             0 MiB allocation reported by mallinfo(arena+hblkhd)
        113289 MiB available memory on the node where the printing process lives
------------------
     ethr =  1.43E-04,  avg # of iterations =  4.0

     total cpu time spent up to now is      269.7 secs

     total energy              =   -4170.13579033 Ry
     estimated scf accuracy    <      10.04700188 Ry

     iteration # 86     ecut=    30.00 Ry     beta= 0.70
     Davidson diagonalization with overlap

---- Real-time Memory Report at c_bands before calling an iterative solver
           807 MiB given to the printing process from OS
             0 MiB allocation reported by mallinfo(arena+hblkhd)
        113289 MiB available memory on the node where the printing process lives
------------------
     ethr =  1.43E-04,  avg # of iterations =  2.0

     total cpu time spent up to now is      272.7 secs

     total energy              =   -4170.15444001 Ry
     estimated scf accuracy    <      18.87147801 Ry

     iteration # 87     ecut=    30.00 Ry     beta= 0.70
     Davidson diagonalization with overlap

---- Real-time Memory Report at c_bands before calling an iterative solver
           807 MiB given to the printing process from OS
             0 MiB allocation reported by mallinfo(arena+hblkhd)
        113290 MiB available memory on the node where the printing process lives
------------------
     ethr =  1.43E-04,  avg # of iterations =  1.0

     total cpu time spent up to now is      275.6 secs

     total energy              =   -4170.09347471 Ry
     estimated scf accuracy    <      50.31766919 Ry

     iteration # 88     ecut=    30.00 Ry     beta= 0.70
     Davidson diagonalization with overlap

---- Real-time Memory Report at c_bands before calling an iterative solver
           807 MiB given to the printing process from OS
             0 MiB allocation reported by mallinfo(arena+hblkhd)
        113291 MiB available memory on the node where the printing process lives
------------------
     ethr =  1.43E-04,  avg # of iterations =  1.0

     total cpu time spent up to now is      278.6 secs

     total energy              =   -4170.09823336 Ry
     estimated scf accuracy    <       9.67343409 Ry

     iteration # 89     ecut=    30.00 Ry     beta= 0.70
     Davidson diagonalization with overlap

---- Real-time Memory Report at c_bands before calling an iterative solver
           807 MiB given to the printing process from OS
             0 MiB allocation reported by mallinfo(arena+hblkhd)
        113291 MiB available memory on the node where the printing process lives
------------------
     ethr =  1.43E-04,  avg # of iterations =  1.0

     total cpu time spent up to now is      281.5 secs

     total energy              =   -4170.11579404 Ry
     estimated scf accuracy    <      44.87576079 Ry

     iteration # 90     ecut=    30.00 Ry     beta= 0.70
     Davidson diagonalization with overlap

---- Real-time Memory Report at c_bands before calling an iterative solver
           807 MiB given to the printing process from OS
             0 MiB allocation reported by mallinfo(arena+hblkhd)
        113349 MiB available memory on the node where the printing process lives
------------------
     ethr =  1.43E-04,  avg # of iterations =  1.0

     total cpu time spent up to now is      284.5 secs

     total energy              =   -4170.10687496 Ry
     estimated scf accuracy    <      36.37524698 Ry

     iteration # 91     ecut=    30.00 Ry     beta= 0.70
     Davidson diagonalization with overlap

---- Real-time Memory Report at c_bands before calling an iterative solver
           807 MiB given to the printing process from OS
             0 MiB allocation reported by mallinfo(arena+hblkhd)
        113348 MiB available memory on the node where the printing process lives
------------------
     ethr =  1.43E-04,  avg # of iterations =  1.0

     total cpu time spent up to now is      287.4 secs

     total energy              =   -4170.09500976 Ry
     estimated scf accuracy    <       1.60821373 Ry

     iteration # 92     ecut=    30.00 Ry     beta= 0.70
     Davidson diagonalization with overlap

---- Real-time Memory Report at c_bands before calling an iterative solver
           807 MiB given to the printing process from OS
             0 MiB allocation reported by mallinfo(arena+hblkhd)
        113350 MiB available memory on the node where the printing process lives
------------------
     ethr =  1.43E-04,  avg # of iterations =  7.0

     total cpu time spent up to now is      290.7 secs

     WARNING: integrated charge=   163.99962478, expected=   164.00000000

     total energy              =   -4169.73672406 Ry
     estimated scf accuracy    <      11.80074481 Ry

     iteration # 93     ecut=    30.00 Ry     beta= 0.70
     Davidson diagonalization with overlap

---- Real-time Memory Report at c_bands before calling an iterative solver
           807 MiB given to the printing process from OS
             0 MiB allocation reported by mallinfo(arena+hblkhd)
        113347 MiB available memory on the node where the printing process lives
------------------
     ethr =  1.43E-04,  avg # of iterations =  6.0

     total cpu time spent up to now is      293.9 secs

     WARNING: integrated charge=   163.99963446, expected=   164.00000000

     total energy              =   -4170.04521294 Ry
     estimated scf accuracy    <       6.82791060 Ry

     iteration # 94     ecut=    30.00 Ry     beta= 0.70
     Davidson diagonalization with overlap

---- Real-time Memory Report at c_bands before calling an iterative solver
           807 MiB given to the printing process from OS
             0 MiB allocation reported by mallinfo(arena+hblkhd)
        113349 MiB available memory on the node where the printing process lives
------------------
     ethr =  1.43E-04,  avg # of iterations =  2.0

     total cpu time spent up to now is      296.8 secs

     WARNING: integrated charge=   163.99968869, expected=   164.00000000

     total energy              =   -4170.05486391 Ry
     estimated scf accuracy    <       5.76250532 Ry

     iteration # 95     ecut=    30.00 Ry     beta= 0.70
     Davidson diagonalization with overlap

---- Real-time Memory Report at c_bands before calling an iterative solver
           807 MiB given to the printing process from OS
             0 MiB allocation reported by mallinfo(arena+hblkhd)
        113356 MiB available memory on the node where the printing process lives
------------------
     ethr =  1.43E-04,  avg # of iterations =  2.0

     total cpu time spent up to now is      299.8 secs

     WARNING: integrated charge=   163.99965531, expected=   164.00000000

     total energy              =   -4170.18465204 Ry
     estimated scf accuracy    <       9.31011875 Ry

     iteration # 96     ecut=    30.00 Ry     beta= 0.70
     Davidson diagonalization with overlap

---- Real-time Memory Report at c_bands before calling an iterative solver
           807 MiB given to the printing process from OS
             0 MiB allocation reported by mallinfo(arena+hblkhd)
        113349 MiB available memory on the node where the printing process lives
------------------
     ethr =  1.43E-04,  avg # of iterations =  2.0

     total cpu time spent up to now is      303.5 secs

     WARNING: integrated charge=   163.99970817, expected=   164.00000000

     total energy              =   -4170.13868540 Ry
     estimated scf accuracy    <      21.07343173 Ry

     iteration # 97     ecut=    30.00 Ry     beta= 0.70
     Davidson diagonalization with overlap

---- Real-time Memory Report at c_bands before calling an iterative solver
           807 MiB given to the printing process from OS
             0 MiB allocation reported by mallinfo(arena+hblkhd)
        113332 MiB available memory on the node where the printing process lives
------------------
     ethr =  1.43E-04,  avg # of iterations =  2.0

     total cpu time spent up to now is      306.6 secs

     WARNING: integrated charge=   163.99971331, expected=   164.00000000

     total energy              =   -4170.03032822 Ry
     estimated scf accuracy    <      63.79208481 Ry

     iteration # 98     ecut=    30.00 Ry     beta= 0.70
     Davidson diagonalization with overlap

---- Real-time Memory Report at c_bands before calling an iterative solver
           807 MiB given to the printing process from OS
             0 MiB allocation reported by mallinfo(arena+hblkhd)
        113339 MiB available memory on the node where the printing process lives
------------------
     ethr =  1.43E-04,  avg # of iterations =  1.0

     total cpu time spent up to now is      309.5 secs

     WARNING: integrated charge=   163.99971448, expected=   164.00000000

     total energy              =   -4170.08800841 Ry
     estimated scf accuracy    <      13.71018553 Ry

     iteration # 99     ecut=    30.00 Ry     beta= 0.70
     Davidson diagonalization with overlap

---- Real-time Memory Report at c_bands before calling an iterative solver
           807 MiB given to the printing process from OS
             0 MiB allocation reported by mallinfo(arena+hblkhd)
        113340 MiB available memory on the node where the printing process lives
------------------
     ethr =  1.43E-04,  avg # of iterations =  1.0

     total cpu time spent up to now is      312.4 secs

     WARNING: integrated charge=   163.99969281, expected=   164.00000000

     total energy              =   -4170.11189512 Ry
     estimated scf accuracy    <      46.17552064 Ry

     iteration #100     ecut=    30.00 Ry     beta= 0.70
     Davidson diagonalization with overlap

---- Real-time Memory Report at c_bands before calling an iterative solver
           807 MiB given to the printing process from OS
             0 MiB allocation reported by mallinfo(arena+hblkhd)
        113342 MiB available memory on the node where the printing process lives
------------------
     ethr =  1.43E-04,  avg # of iterations =  1.0

     total cpu time spent up to now is      315.3 secs

     WARNING: integrated charge=   163.99970023, expected=   164.00000000

     total energy              =   -4170.05141155 Ry
     estimated scf accuracy    <      34.79761739 Ry

     End of self-consistent calculation

     convergence NOT achieved after 100 iterations: stopping

     Writing config to output data dir new_calculations/myprefix.save/
     Message from routine punch:
     wavefunctions written to file
 
     init_run     :    169.39s CPU      7.14s WALL (       1 calls)
     electrons    :   9174.11s CPU    307.89s WALL (       1 calls)

     Called by init_run:
     wfcinit      :     36.49s CPU      1.18s WALL (       1 calls)
     wfcinit:atom :      0.18s CPU      0.01s WALL (       1 calls)
     wfcinit:wfcr :     35.69s CPU      1.15s WALL (       1 calls)
     potinit      :     60.14s CPU      2.01s WALL (       1 calls)
     hinit0       :     47.68s CPU      3.07s WALL (       1 calls)

     Called by electrons:
     c_bands      :   2081.01s CPU     66.43s WALL (     100 calls)
     sum_band     :   1188.35s CPU     43.40s WALL (     100 calls)
     v_of_rho     :    128.34s CPU      4.32s WALL (     101 calls)
     v_h          :      9.87s CPU      0.33s WALL (     101 calls)
     v_xc         :    118.21s CPU      3.98s WALL (     101 calls)
     newd         :   1835.31s CPU     61.92s WALL (     101 calls)
     PAW_pot      :   3933.28s CPU    131.59s WALL (     101 calls)
     mix_rho      :     36.96s CPU      1.22s WALL (     100 calls)

     Called by c_bands:
     init_us_2    :      4.07s CPU      0.15s WALL (     201 calls)
     init_us_2:cp :      3.78s CPU      0.14s WALL (     201 calls)
     regterg      :   2041.87s CPU     65.13s WALL (     100 calls)

     Called by sum_band:
     sum_band:wei :      0.82s CPU      0.03s WALL (     100 calls)
     sum_band:loo :    438.71s CPU     13.97s WALL (     100 calls)
     sum_band:buf :      0.07s CPU      0.00s WALL (     100 calls)
     sum_band:ini :      1.79s CPU      0.06s WALL (     100 calls)
     sum_band:cal :      2.47s CPU      0.08s WALL (     100 calls)
     sum_band:bec :      0.60s CPU      0.02s WALL (     100 calls)
     addusdens    :    730.70s CPU     28.80s WALL (     100 calls)
     addusd:skk   :      1.15s CPU      0.04s WALL (     200 calls)
     addusd:dgemm :     29.06s CPU      5.44s WALL (     200 calls)
     addusd:qvan2 :    443.99s CPU     14.39s WALL (     200 calls)

     Called by *egterg:
     rdiaghg      :     73.82s CPU      2.46s WALL (     277 calls)
     regterg:over :      3.08s CPU      0.10s WALL (     177 calls)
     regterg:upda :      5.09s CPU      0.17s WALL (     177 calls)
     regterg:last :      8.87s CPU      0.30s WALL (     139 calls)
     h_psi        :   1927.44s CPU     61.24s WALL (     278 calls)
     s_psi        :      2.66s CPU      0.09s WALL (     278 calls)
     g_psi        :      0.39s CPU      0.01s WALL (     177 calls)

     Called by h_psi:
     h_psi:calbec :      5.02s CPU      0.17s WALL (     278 calls)
     vloc_psi     :   1915.87s CPU     60.84s WALL (     278 calls)
     add_vuspsi   :      3.75s CPU      0.13s WALL (     278 calls)

     General routines
     calbec       :      6.91s CPU      0.24s WALL (     378 calls)
     fft          :     47.58s CPU      1.86s WALL (    1111 calls)
     ffts         :     19.07s CPU      0.63s WALL (     201 calls)
     fftw         :   2075.64s CPU     65.65s WALL (   25600 calls)
     interpolate  :     25.94s CPU      0.86s WALL (     101 calls)
     davcio       :      0.95s CPU      0.17s WALL (      19 calls)
 
     Parallel routines

     PAW routines
     PAW_pot      :   3933.28s CPU    131.59s WALL (     101 calls)
     PAW_symme    :      8.94s CPU      0.30s WALL (     201 calls)
 
     PWSCF        :      2h35m CPU   5m15.73s WALL

 
   This run was terminated on:  16:32:23  20May2023            

=------------------------------------------------------------------------------=
   JOB DONE.
=------------------------------------------------------------------------------=
