
     Program PWSCF v.7.0 starts on 21May2023 at  4:27:41 

     This program is part of the open-source Quantum ESPRESSO suite
     for quantum simulation of materials; please cite
         "P. Giannozzi et al., J. Phys.:Condens. Matter 21 395502 (2009);
         "P. Giannozzi et al., J. Phys.:Condens. Matter 29 465901 (2017);
         "P. Giannozzi et al., J. Chem. Phys. 152 154105 (2020);
          URL http://www.quantum-espresso.org", 
     in publications or presentations arising from this work. More details at
     http://www.quantum-espresso.org/quote

     Parallel version (MPI & OpenMP), running on      32 processor cores
     Number of MPI processes:                 1
     Threads/MPI process:                    32

     MPI processes distributed on     1 nodes
     131312 MiB available memory on the printing compute node when the environment starts
 
     Reading input from espresso_12795.pwi
Warning: card &CELL ignored
Warning: card / ignored

     Current dimensions of program PWSCF are:
     Max number of different atomic species (ntypx) = 10
     Max number of k-points (npk) =  40000
     Max angular momentum in pseudopotentials (lmaxx) =  4
     file Ga.pbe-dn-kjpaw_psl.1.0.0.UPF: wavefunction(s)  4S renormalized

     gamma-point specific algorithms are used
     Message from routine setup:
     using ibrav=0 with symmetry is DISCOURAGED, use correct ibrav instead

     Subspace diagonalization in iterative solution of the eigenvalue problem:
     a serial algorithm will be used

 
     G-vector sticks info
     --------------------
     sticks:   dense  smooth     PW     G-vecs:    dense   smooth      PW
     Sum        4663    2325    585               332547   117591   14731
 
     Using Slab Decomposition
 


     bravais-lattice index     =            0
     lattice parameter (alat)  =      16.6567  a.u.
     unit-cell volume          =    5298.0293 (a.u.)^3
     number of atoms/cell      =           20
     number of atomic types    =            2
     number of electrons       =       188.00
     number of Kohn-Sham states=          113
     kinetic-energy cutoff     =      30.0000  Ry
     charge density cutoff     =     240.0000  Ry
     scf convergence threshold =      1.0E-06
     mixing beta               =       0.7000
     number of iterations used =            8  plain     mixing
     Exchange-correlation= SLA  PW   PBX  PBC
                           (   1   4   3   4   0   0   0)

     celldm(1)=  16.656672  celldm(2)=   0.000000  celldm(3)=   0.000000
     celldm(4)=   0.000000  celldm(5)=   0.000000  celldm(6)=   0.000000

     crystal axes: (cart. coord. in units of alat)
               a(1) = (   1.000000   0.000000   0.000000 )  
               a(2) = (   0.000000   0.879829   0.000000 )  
               a(3) = (   0.000000   0.848547   1.303021 )  

     reciprocal axes: (cart. coord. in units 2 pi/alat)
               b(1) = (  1.000000  0.000000  0.000000 )  
               b(2) = (  0.000000  1.136584 -0.740161 )  
               b(3) = (  0.000000  0.000000  0.767448 )  


     PseudoPot. # 1 for Ga read from file:
     /home/pragov/projects/rrg-bengioy-ad/pragov/crystal_structure_design/SSSP/Ga.pbe-dn-kjpaw_psl.1.0.0.UPF
     MD5 check sum: a27b4342b1af7e5f338de752e9ed7044
     Pseudo is Projector augmented-wave + core cor, Zval = 13.0
     Generated using "atomic" code by A. Dal Corso  v.5.1
     Shape of augmentation charge: PSQ
     Using radial grid of 1205 points,  6 beta functions with: 
                l(1) =   0
                l(2) =   0
                l(3) =   1
                l(4) =   1
                l(5) =   2
                l(6) =   2
     Q(r) pseudized with 0 coefficients 


     PseudoPot. # 2 for I  read from file:
     /home/pragov/projects/rrg-bengioy-ad/pragov/crystal_structure_design/SSSP/I.pbe-n-kjpaw_psl.0.2.UPF
     MD5 check sum: d4ef18d9c8f18dc85e5843bca1e50dc0
     Pseudo is Projector augmented-wave + core cor, Zval =  7.0
     Generated using "atomic" code by A. Dal Corso  v.5.0.99 svn rev. 10869
     Shape of augmentation charge: PSQ
     Using radial grid of 1247 points,  4 beta functions with: 
                l(1) =   0
                l(2) =   0
                l(3) =   1
                l(4) =   1
     Q(r) pseudized with 0 coefficients 


     atomic species   valence    mass     pseudopotential
        Ga            13.00    69.72300     Ga( 1.00)
        I              7.00   126.90447     I ( 1.00)

      4 Sym. Ops., with inversion, found ( 2 have fractional translation)


                                    s                        frac. trans.

      isym =  1     identity                                     

 cryst.   s( 1) = (     1          0          0      )
                  (     0          1          0      )
                  (     0          0          1      )

 cart.    s( 1) = (  1.0000000  0.0000000  0.0000000 )
                  (  0.0000000  1.0000000  0.0000000 )
                  (  0.0000000  0.0000000  1.0000000 )


      isym =  2     180 deg rotation - cart. axis [1,0,0]        

 cryst.   s( 2) = (     1          0          0      )    f =(  0.5000000 )
                  (     0         -1          0      )       ( -0.0000000 )
                  (     0          0         -1      )       (  0.5000000 )

 cart.    s( 2) = (  1.0000000  0.0000000  0.0000000 )    f =(  0.5000000 )
                  (  0.0000000 -1.0000000 -0.0000000 )       (  0.4242734 )
                  (  0.0000000  0.0000000 -1.0000000 )       (  0.6515103 )


      isym =  3     inversion                                    

 cryst.   s( 3) = (    -1          0          0      )
                  (     0         -1          0      )
                  (     0          0         -1      )

 cart.    s( 3) = ( -1.0000000  0.0000000  0.0000000 )
                  (  0.0000000 -1.0000000 -0.0000000 )
                  (  0.0000000  0.0000000 -1.0000000 )


      isym =  4     inv. 180 deg rotation - cart. axis [1,0,0]   

 cryst.   s( 4) = (    -1          0          0      )    f =(  0.5000000 )
                  (     0          1          0      )       (  0.0000000 )
                  (     0          0          1      )       (  0.5000000 )

 cart.    s( 4) = ( -1.0000000  0.0000000  0.0000000 )    f =(  0.5000000 )
                  (  0.0000000  1.0000000  0.0000000 )       (  0.4242734 )
                  (  0.0000000  0.0000000  1.0000000 )       (  0.6515103 )


   Cartesian axes

     site n.     atom                  positions (alat units)
         1           Ga  tau(   1) = (   0.5971510   1.2414529   0.7266659  )
         2           Ga  tau(   2) = (   0.8718130   0.3917846   0.3016062  )
         3           Ga  tau(   3) = (   0.3718130   0.9123181   0.3499040  )
         4           Ga  tau(   4) = (   0.9028490   0.8171795   0.0751556  )
         5           Ga  tau(   5) = (   0.0971510   0.9111966   1.2278649  )
         6           Ga  tau(   6) = (   0.1281870   1.3365915   1.0014143  )
         7           Ga  tau(   7) = (   0.6281870   0.8160580   0.9531165  )
         8           Ga  tau(   8) = (   0.4028490   0.4869232   0.5763546  )
         9           I   tau(   9) = (   0.0086060   0.7426808   0.3454737  )
        10           I   tau(  10) = (   0.5086060   0.5614219   0.3060365  )
        11           I   tau(  11) = (   0.3005980   0.7348573   0.7088366  )
        12           I   tau(  12) = (   0.1994020   0.3105839   0.0573264  )
        13           I   tau(  13) = (   0.4913940   1.1669541   0.9969840  )
        14           I   tau(  14) = (   0.6699790   0.1252410   0.1054000  )
        15           I   tau(  15) = (   0.9913940   0.9856953   0.9575468  )
        16           I   tau(  16) = (   0.1699790   1.1788617   0.5461102  )
        17           I   tau(  17) = (   0.8300210   0.5495144   0.7569103  )
        18           I   tau(  18) = (   0.6994020   0.9935188   0.5941839  )
        19           I   tau(  19) = (   0.8005980   1.4177922   1.2456941  )
        20           I   tau(  20) = (   0.3300210   1.6031351   1.1976205  )

   Crystallographic axes

     site n.     atom                  positions (cryst. coord.)
         1           Ga  tau(   1) = (  0.5971510  0.8731660  0.5576780  )
         2           Ga  tau(   2) = (  0.8718130  0.2220590  0.2314670  )
         3           Ga  tau(   3) = (  0.3718130  0.7779410  0.2685330  )
         4           Ga  tau(   4) = (  0.9028490  0.8731660  0.0576780  )
         5           Ga  tau(   5) = (  0.0971510  0.1268340  0.9423220  )
         6           Ga  tau(   6) = (  0.1281870  0.7779410  0.7685330  )
         7           Ga  tau(   7) = (  0.6281870  0.2220590  0.7314670  )
         8           Ga  tau(   8) = (  0.4028490  0.1268340  0.4423220  )
         9           I   tau(   9) = (  0.0086060  0.5884130  0.2651330  )
        10           I   tau(  10) = (  0.5086060  0.4115870  0.2348670  )
        11           I   tau(  11) = (  0.3005980  0.3105740  0.5439950  )
        12           I   tau(  12) = (  0.1994020  0.3105740  0.0439950  )
        13           I   tau(  13) = (  0.4913940  0.5884130  0.7651330  )
        14           I   tau(  14) = (  0.6699790  0.0643340  0.0808890  )
        15           I   tau(  15) = (  0.9913940  0.4115870  0.7348670  )
        16           I   tau(  16) = (  0.1699790  0.9356660  0.4191110  )
        17           I   tau(  17) = (  0.8300210  0.0643340  0.5808890  )
        18           I   tau(  18) = (  0.6994020  0.6894260  0.4560050  )
        19           I   tau(  19) = (  0.8005980  0.6894260  0.9560050  )
        20           I   tau(  20) = (  0.3300210  0.9356660  0.9191110  )

     number of k points=     1  Methfessel-Paxton smearing, width (Ry)=  0.0010
                       cart. coord. in units 2pi/alat
        k(    1) = (   0.0000000   0.0000000   0.0000000), wk =   2.0000000

                       cryst. coord.
        k(    1) = (   0.0000000   0.0000000   0.0000000), wk =   2.0000000

     Dense  grid:   166274 G-vectors     FFT dimensions: (  90,  75, 128)

     Smooth grid:    58796 G-vectors     FFT dimensions: (  60,  54,  96)

     Dynamical RAM for                 wfc:      12.67 MB

     Dynamical RAM for     wfc (w. buffer):      12.67 MB

     Dynamical RAM for           str. fact:       5.07 MB

     Dynamical RAM for           local pot:       0.00 MB

     Dynamical RAM for          nlocal pot:      26.92 MB

     Dynamical RAM for                qrad:       2.49 MB

     Dynamical RAM for          rho,v,vnew:      27.39 MB

     Dynamical RAM for               rhoin:       9.13 MB

     Dynamical RAM for            rho*nmix:      40.59 MB

     Dynamical RAM for           G-vectors:       9.96 MB

     Dynamical RAM for          h,s,v(r/c):       1.17 MB

     Dynamical RAM for          <psi|beta>:       0.21 MB

     Dynamical RAM for                 psi:      25.35 MB

     Dynamical RAM for                hpsi:      25.35 MB

     Dynamical RAM for                spsi:      25.35 MB

     Dynamical RAM for      wfcinit/wfcrot:      27.25 MB

     Dynamical RAM for           addusdens:     502.35 MB

     Dynamical RAM for          addusforce:     559.49 MB

     Dynamical RAM for         addusstress:     509.97 MB

     Estimated static dynamical RAM per process >     134.20 MB

     Estimated max dynamical RAM per process >     734.28 MB

     Check: negative core charge=   -0.000001

     Initial potential from superposition of free atoms

     starting charge     187.9755, renormalised to     188.0000
     Starting wfcs are  120 randomized atomic wfcs
     Checking if some PAW data can be deallocated... 

     total cpu time spent up to now is       17.7 secs

     Self-consistent Calculation

     iteration #  1     ecut=    30.00 Ry     beta= 0.70
     Davidson diagonalization with overlap

---- Real-time Memory Report at c_bands before calling an iterative solver
           983 MiB given to the printing process from OS
             0 MiB allocation reported by mallinfo(arena+hblkhd)
        130781 MiB available memory on the node where the printing process lives
------------------
     ethr =  1.00E-02,  avg # of iterations =  2.0

     Threshold (ethr) on eigenvalues was too large:
     Diagonalizing with lowered threshold

     Davidson diagonalization with overlap

---- Real-time Memory Report at c_bands before calling an iterative solver
          1196 MiB given to the printing process from OS
             0 MiB allocation reported by mallinfo(arena+hblkhd)
        130736 MiB available memory on the node where the printing process lives
------------------
     ethr =  1.47E-04,  avg # of iterations =  5.0

     negative rho (up, down):  7.471E-07 0.000E+00

     total cpu time spent up to now is       29.4 secs

     total energy              =   -6770.72857509 Ry
     estimated scf accuracy    <       0.25843058 Ry

     iteration #  2     ecut=    30.00 Ry     beta= 0.70
     Davidson diagonalization with overlap

---- Real-time Memory Report at c_bands before calling an iterative solver
          1212 MiB given to the printing process from OS
             0 MiB allocation reported by mallinfo(arena+hblkhd)
        130721 MiB available memory on the node where the printing process lives
------------------
     ethr =  1.37E-04,  avg # of iterations =  2.0

     negative rho (up, down):  2.555E-06 0.000E+00

     total cpu time spent up to now is       33.1 secs

     total energy              =   -6770.78221969 Ry
     estimated scf accuracy    <       0.06847899 Ry

     iteration #  3     ecut=    30.00 Ry     beta= 0.70
     Davidson diagonalization with overlap

---- Real-time Memory Report at c_bands before calling an iterative solver
          1216 MiB given to the printing process from OS
             0 MiB allocation reported by mallinfo(arena+hblkhd)
        130720 MiB available memory on the node where the printing process lives
------------------
     ethr =  3.64E-05,  avg # of iterations =  2.0

     total cpu time spent up to now is       36.4 secs

     total energy              =   -6770.79903703 Ry
     estimated scf accuracy    <       0.01505076 Ry

     iteration #  4     ecut=    30.00 Ry     beta= 0.70
     Davidson diagonalization with overlap

---- Real-time Memory Report at c_bands before calling an iterative solver
          1218 MiB given to the printing process from OS
             0 MiB allocation reported by mallinfo(arena+hblkhd)
        130723 MiB available memory on the node where the printing process lives
------------------
     ethr =  8.01E-06,  avg # of iterations =  2.0

     total cpu time spent up to now is       39.7 secs

     total energy              =   -6770.80296912 Ry
     estimated scf accuracy    <       0.00232791 Ry

     iteration #  5     ecut=    30.00 Ry     beta= 0.70
     Davidson diagonalization with overlap

---- Real-time Memory Report at c_bands before calling an iterative solver
          1219 MiB given to the printing process from OS
             0 MiB allocation reported by mallinfo(arena+hblkhd)
        130719 MiB available memory on the node where the printing process lives
------------------
     ethr =  1.24E-06,  avg # of iterations =  2.0

     total cpu time spent up to now is       43.0 secs

     total energy              =   -6770.80343950 Ry
     estimated scf accuracy    <       0.00012524 Ry

     iteration #  6     ecut=    30.00 Ry     beta= 0.70
     Davidson diagonalization with overlap

---- Real-time Memory Report at c_bands before calling an iterative solver
          1221 MiB given to the printing process from OS
             0 MiB allocation reported by mallinfo(arena+hblkhd)
        130720 MiB available memory on the node where the printing process lives
------------------
     ethr =  6.66E-08,  avg # of iterations =  5.0

     total cpu time spent up to now is       46.9 secs

     total energy              =   -6770.80348606 Ry
     estimated scf accuracy    <       0.00002536 Ry

     iteration #  7     ecut=    30.00 Ry     beta= 0.70
     Davidson diagonalization with overlap

---- Real-time Memory Report at c_bands before calling an iterative solver
          1222 MiB given to the printing process from OS
             0 MiB allocation reported by mallinfo(arena+hblkhd)
        130723 MiB available memory on the node where the printing process lives
------------------
     ethr =  1.35E-08,  avg # of iterations =  2.0

     total cpu time spent up to now is       50.3 secs

     total energy              =   -6770.80349259 Ry
     estimated scf accuracy    <       0.00000841 Ry

     iteration #  8     ecut=    30.00 Ry     beta= 0.70
     Davidson diagonalization with overlap

---- Real-time Memory Report at c_bands before calling an iterative solver
          1225 MiB given to the printing process from OS
             0 MiB allocation reported by mallinfo(arena+hblkhd)
        130726 MiB available memory on the node where the printing process lives
------------------
     ethr =  4.48E-09,  avg # of iterations =  2.0

     total cpu time spent up to now is       53.6 secs

     total energy              =   -6770.80349487 Ry
     estimated scf accuracy    <       0.00000187 Ry

     iteration #  9     ecut=    30.00 Ry     beta= 0.70
     Davidson diagonalization with overlap

---- Real-time Memory Report at c_bands before calling an iterative solver
          1227 MiB given to the printing process from OS
             0 MiB allocation reported by mallinfo(arena+hblkhd)
        130718 MiB available memory on the node where the printing process lives
------------------
     ethr =  9.93E-10,  avg # of iterations =  5.0

     total cpu time spent up to now is       58.9 secs

     End of self-consistent calculation

          k = 0.0000 0.0000 0.0000 (  7366 PWs)   bands (ev):

   -11.8141 -11.8137 -11.7104 -11.7100 -11.6994 -11.6988 -11.6676 -11.6666
   -11.6653 -11.6647 -11.6115 -11.6110 -11.6058 -11.6053 -11.4934 -11.4928
   -11.4880 -11.4875 -11.4044 -11.4035 -11.3384 -11.3383 -11.3379 -11.3375
   -11.3367 -11.3366 -11.3361 -11.3361 -11.3262 -11.3261 -11.3260 -11.3259
   -11.3220 -11.3216 -11.3191 -11.3190 -11.3169 -11.3168 -11.3166 -11.3165
    -9.4700  -9.1891  -9.1393  -9.0762  -8.9004  -8.8465  -8.8143  -8.7442
    -8.7402  -8.7344  -8.6694  -8.6647  -3.5986  -3.4661  -2.1778  -2.0648
    -1.9022  -1.6823  -1.4533  -1.1546  -0.2239  -0.1847  -0.0901  -0.0627
    -0.0471   0.1412   0.3053   0.4473   0.6567   0.7889   0.8789   0.9421
     0.9765   1.0367   1.1246   1.2426   1.3336   1.3888   1.5024   1.6432
     1.7194   1.7415   1.7658   1.8002   1.8444   1.9181   1.9978   2.0253
     2.1306   2.2068   2.3272   2.4553   2.4637   2.6179   5.0033   5.0300
     5.5071   5.5640   5.8013   6.0554   6.0698   6.2018   6.2065   6.4079
     6.5886   6.7260   6.7298   6.8486   6.9682   7.0494   7.0985   7.1424
     7.4616

     occupation numbers 
     1.0000   1.0000   1.0000   1.0000   1.0000   1.0000   1.0000   1.0000
     1.0000   1.0000   1.0000   1.0000   1.0000   1.0000   1.0000   1.0000
     1.0000   1.0000   1.0000   1.0000   1.0000   1.0000   1.0000   1.0000
     1.0000   1.0000   1.0000   1.0000   1.0000   1.0000   1.0000   1.0000
     1.0000   1.0000   1.0000   1.0000   1.0000   1.0000   1.0000   1.0000
     1.0000   1.0000   1.0000   1.0000   1.0000   1.0000   1.0000   1.0000
     1.0000   1.0000   1.0000   1.0000   1.0000   1.0000   1.0000   1.0000
     1.0000   1.0000   1.0000   1.0000   1.0000   1.0000   1.0000   1.0000
     1.0000   1.0000   1.0000   1.0000   1.0000   1.0000   1.0000   1.0000
     1.0000   1.0000   1.0000   1.0000   1.0000   1.0000   1.0000   1.0000
     1.0000   1.0000   1.0000   1.0000   1.0000   1.0000   1.0000   1.0000
     1.0000   1.0000   1.0000   1.0000   1.0000   1.0000  -0.0000  -0.0000
    -0.0000  -0.0000  -0.0000  -0.0000  -0.0000  -0.0000  -0.0000  -0.0000
    -0.0000  -0.0000  -0.0000  -0.0000  -0.0000  -0.0000  -0.0000  -0.0000
    -0.0000

     the Fermi energy is     2.7107 ev

!    total energy              =   -6770.80349551 Ry

     total all-electron energy =   -201900.090124 Ry
     estimated scf accuracy    <       0.00000010 Ry
     smearing contrib. (-TS)   =       0.00000000 Ry
     internal energy E=F+TS    =   -6770.80349551 Ry

     The total energy is F=E-TS. E is the sum of the following terms:
     one-electron contribution =   -1221.16239299 Ry
     hartree contribution      =     738.33095707 Ry
     xc contribution           =    -804.70571404 Ry
     ewald contribution        =    -749.40028760 Ry
     one-center paw contrib.   =   -4733.86605797 Ry
      -> PAW hartree energy AE =    1221.18681715 Ry
      -> PAW hartree energy PS =   -1204.30293529 Ry
      -> PAW xc energy AE      =   -5536.09992770 Ry
      -> PAW xc energy PS      =     785.34998788 Ry
      -> total E_H with PAW    =     755.21483893 Ry
      -> total E_XC with PAW   =   -5555.45565386 Ry

     convergence has been achieved in   9 iterations

     Forces acting on atoms (cartesian axes, Ry/au):

     atom    1 type  1   force =     0.00060231   -0.00259916    0.00117438
     atom    2 type  1   force =     0.00380412   -0.00259661   -0.00119973
     atom    3 type  1   force =     0.00380412    0.00259661    0.00119973
     atom    4 type  1   force =    -0.00060231   -0.00259916    0.00117438
     atom    5 type  1   force =     0.00060231    0.00259916   -0.00117438
     atom    6 type  1   force =    -0.00380412    0.00259661    0.00119973
     atom    7 type  1   force =    -0.00380412   -0.00259661   -0.00119973
     atom    8 type  1   force =    -0.00060231    0.00259916   -0.00117438
     atom    9 type  2   force =     0.00454728    0.00117071    0.00989692
     atom   10 type  2   force =     0.00454728   -0.00117071   -0.00989692
     atom   11 type  2   force =    -0.00126137    0.00508539    0.00648270
     atom   12 type  2   force =     0.00126137    0.00508539    0.00648270
     atom   13 type  2   force =    -0.00454728    0.00117071    0.00989692
     atom   14 type  2   force =    -0.01258295    0.00162570    0.00435172
     atom   15 type  2   force =    -0.00454728   -0.00117071   -0.00989692
     atom   16 type  2   force =    -0.01258295   -0.00162570   -0.00435172
     atom   17 type  2   force =     0.01258295    0.00162570    0.00435172
     atom   18 type  2   force =     0.00126137   -0.00508539   -0.00648270
     atom   19 type  2   force =    -0.00126137   -0.00508539   -0.00648270
     atom   20 type  2   force =     0.01258295   -0.00162570   -0.00435172
     The non-local contrib.  to forces
     atom    1 type  1   force =     0.38603800   -0.24713568    0.28764307
     atom    2 type  1   force =    -0.00905946    0.07183438   -0.06906058
     atom    3 type  1   force =    -0.00905946   -0.07183438    0.06906058
     atom    4 type  1   force =    -0.38603800   -0.24713568    0.28764307
     atom    5 type  1   force =     0.38603800    0.24713568   -0.28764307
     atom    6 type  1   force =     0.00905946   -0.07183438    0.06906058
     atom    7 type  1   force =     0.00905946    0.07183438   -0.06906058
     atom    8 type  1   force =    -0.38603800    0.24713568   -0.28764307
     atom    9 type  2   force =    -0.03350406    0.01418921   -0.11802841
     atom   10 type  2   force =    -0.03350406   -0.01418921    0.11802841
     atom   11 type  2   force =     0.05474647   -0.10208937   -0.06229112
     atom   12 type  2   force =    -0.05474647   -0.10208937   -0.06229112
     atom   13 type  2   force =     0.03350406    0.01418921   -0.11802841
     atom   14 type  2   force =     0.09050107   -0.06545594    0.01053231
     atom   15 type  2   force =     0.03350406   -0.01418921    0.11802841
     atom   16 type  2   force =     0.09050107    0.06545594   -0.01053231
     atom   17 type  2   force =    -0.09050107   -0.06545594    0.01053231
     atom   18 type  2   force =    -0.05474647    0.10208937    0.06229112
     atom   19 type  2   force =     0.05474647    0.10208937    0.06229112
     atom   20 type  2   force =    -0.09050107    0.06545594   -0.01053231
     The ionic contribution  to forces
     atom    1 type  1   force =     6.63103612   -3.77387018    5.10821803
     atom    2 type  1   force =     0.31816449   -0.36173453    1.16084553
     atom    3 type  1   force =     0.31816449    0.36173453   -1.16084553
     atom    4 type  1   force =    -6.63103612   -3.77387018    5.10821803
     atom    5 type  1   force =     6.63103612    3.77387018   -5.10821803
     atom    6 type  1   force =    -0.31816449    0.36173453   -1.16084553
     atom    7 type  1   force =    -0.31816449   -0.36173453    1.16084553
     atom    8 type  1   force =    -6.63103612    3.77387018   -5.10821803
     atom    9 type  2   force =     0.78708866   -0.40657786    6.14290819
     atom   10 type  2   force =     0.78708866    0.40657786   -6.14290819
     atom   11 type  2   force =    -3.92219933    4.74973878    2.13993000
     atom   12 type  2   force =     3.92219933    4.74973878    2.13993000
     atom   13 type  2   force =    -0.78708866   -0.40657786    6.14290819
     atom   14 type  2   force =    -4.84712137    3.05196338   -0.71777032
     atom   15 type  2   force =    -0.78708866    0.40657786   -6.14290819
     atom   16 type  2   force =    -4.84712137   -3.05196338    0.71777032
     atom   17 type  2   force =     4.84712137    3.05196338   -0.71777032
     atom   18 type  2   force =     3.92219933   -4.74973878   -2.13993000
     atom   19 type  2   force =    -3.92219933   -4.74973878   -2.13993000
     atom   20 type  2   force =     4.84712137   -3.05196338    0.71777032
     The local contribution  to forces
     atom    1 type  1   force =    -7.00762111    4.01288219   -5.38825801
     atom    2 type  1   force =    -0.30534523    0.28838865   -1.09459776
     atom    3 type  1   force =    -0.30526905   -0.28839576    1.09417251
     atom    4 type  1   force =     7.00766859    4.01283651   -5.38827057
     atom    5 type  1   force =    -7.00769082   -4.01283358    5.38827819
     atom    6 type  1   force =     0.30529993   -0.28841833    1.09461926
     atom    7 type  1   force =     0.30530781    0.28841675   -1.09418818
     atom    8 type  1   force =     7.00766172   -4.01284512    5.38822748
     atom    9 type  2   force =    -0.75262507    0.39442295   -6.03279511
     atom   10 type  2   force =    -0.75257918   -0.39439585    6.03254019
     atom   11 type  2   force =     3.87451864   -4.65600758   -2.08184731
     atom   12 type  2   force =    -3.87447012   -4.65604332   -2.08195291
     atom   13 type  2   force =     0.75260812    0.39438331   -6.03255096
     atom   14 type  2   force =     4.75658159   -2.99338389    0.71443039
     atom   15 type  2   force =     0.75259824   -0.39441740    6.03280591
     atom   16 type  2   force =     4.75661638    2.99336316   -0.71455940
     atom   17 type  2   force =    -4.75663225   -2.99336826    0.71457907
     atom   18 type  2   force =    -3.87450678    4.65600953    2.08186829
     atom   19 type  2   force =     3.87447727    4.65603089    2.08191230
     atom   20 type  2   force =    -4.75659350    2.99340005   -0.71445886
     The core correction contribution to forces
     atom    1 type  1   force =    -0.00893484    0.00567269   -0.00662493
     atom    2 type  1   force =    -0.00003319   -0.00136501    0.00159723
     atom    3 type  1   force =    -0.00003419    0.00136480   -0.00159730
     atom    4 type  1   force =     0.00893657    0.00567112   -0.00662033
     atom    5 type  1   force =    -0.00893676   -0.00567135    0.00662291
     atom    6 type  1   force =     0.00003312    0.00136430   -0.00159696
     atom    7 type  1   force =     0.00003406   -0.00136472    0.00159654
     atom    8 type  1   force =     0.00893473   -0.00567150    0.00662308
     atom    9 type  2   force =     0.00358814   -0.00078793    0.01763099
     atom   10 type  2   force =     0.00359073    0.00078991   -0.01763631
     atom   11 type  2   force =    -0.00826688    0.01335251    0.01083455
     atom   12 type  2   force =     0.00826755    0.01335088    0.01083287
     atom   13 type  2   force =    -0.00358943   -0.00079049    0.01763474
     atom   14 type  2   force =    -0.01256645    0.00849377   -0.00287047
     atom   15 type  2   force =    -0.00358949    0.00078869   -0.01763166
     atom   16 type  2   force =    -0.01256674   -0.00849445    0.00286716
     atom   17 type  2   force =     0.01256501    0.00849417   -0.00286904
     atom   18 type  2   force =     0.00826687   -0.01335233   -0.01083717
     atom   19 type  2   force =    -0.00826516   -0.01335129   -0.01083322
     atom   20 type  2   force =     0.01256423   -0.00849281    0.00286918
     The Hubbard contrib.    to forces
     atom    1 type  1   force =     0.00000000    0.00000000    0.00000000
     atom    2 type  1   force =     0.00000000    0.00000000    0.00000000
     atom    3 type  1   force =     0.00000000    0.00000000    0.00000000
     atom    4 type  1   force =     0.00000000    0.00000000    0.00000000
     atom    5 type  1   force =     0.00000000    0.00000000    0.00000000
     atom    6 type  1   force =     0.00000000    0.00000000    0.00000000
     atom    7 type  1   force =     0.00000000    0.00000000    0.00000000
     atom    8 type  1   force =     0.00000000    0.00000000    0.00000000
     atom    9 type  2   force =     0.00000000    0.00000000    0.00000000
     atom   10 type  2   force =     0.00000000    0.00000000    0.00000000
     atom   11 type  2   force =     0.00000000    0.00000000    0.00000000
     atom   12 type  2   force =     0.00000000    0.00000000    0.00000000
     atom   13 type  2   force =     0.00000000    0.00000000    0.00000000
     atom   14 type  2   force =     0.00000000    0.00000000    0.00000000
     atom   15 type  2   force =     0.00000000    0.00000000    0.00000000
     atom   16 type  2   force =     0.00000000    0.00000000    0.00000000
     atom   17 type  2   force =     0.00000000    0.00000000    0.00000000
     atom   18 type  2   force =     0.00000000    0.00000000    0.00000000
     atom   19 type  2   force =     0.00000000    0.00000000    0.00000000
     atom   20 type  2   force =     0.00000000    0.00000000    0.00000000
     The SCF correction term to forces
     atom    1 type  1   force =     0.00008316   -0.00015812    0.00017881
     atom    2 type  1   force =     0.00008021    0.00027628   -0.00000340
     atom    3 type  1   force =    -0.00000173   -0.00026751    0.00040656
     atom    4 type  1   force =    -0.00012574   -0.00008605    0.00021742
     atom    5 type  1   force =     0.00015803    0.00010377   -0.00022460
     atom    6 type  1   force =    -0.00003483   -0.00025522   -0.00004790
     atom    7 type  1   force =    -0.00003966    0.00025451   -0.00038698
     atom    8 type  1   force =    -0.00013099    0.00010932   -0.00015778
     atom    9 type  2   force =    -0.00000181   -0.00007525    0.00019738
     atom   10 type  2   force =    -0.00004773    0.00004586    0.00009428
     atom   11 type  2   force =    -0.00006400    0.00009006   -0.00015726
     atom   12 type  2   force =     0.00000864    0.00012812   -0.00002573
     atom   13 type  2   force =     0.00001586   -0.00003491   -0.00008170
     atom   14 type  2   force =     0.00002346    0.00000688    0.00004219
     atom   15 type  2   force =     0.00003103    0.00006904   -0.00020564
     atom   16 type  2   force =    -0.00001530    0.00001473    0.00010235
     atom   17 type  2   force =     0.00003092   -0.00000591   -0.00013373
     atom   18 type  2   force =     0.00005116   -0.00009371    0.00012115
     atom   19 type  2   force =    -0.00001658   -0.00011637    0.00007755
     atom   20 type  2   force =    -0.00001083   -0.00002697   -0.00000097

     Total force =     0.040027     Total SCF correction =     0.001061


     Computing stress (Cartesian axis) and pressure

          total   stress  (Ry/bohr**3)                   (kbar)     P=        1.23
   0.00005132   0.00000000   0.00000000            7.55        0.00        0.00
   0.00000000  -0.00005272  -0.00000780            0.00       -7.76       -1.15
   0.00000000  -0.00000780   0.00002645            0.00       -1.15        3.89

     kinetic stress (kbar)   3556.79      0.00      0.00
                                0.00   3524.63    -10.70
                                0.00    -10.70   3542.19

     local   stress (kbar)   -550.54      0.00      0.00
                                0.00  -1794.11    703.63
                                0.00    703.63   -610.78

     nonloc. stress (kbar)    108.98      0.00      0.00
                                0.00    107.96     -0.73
                                0.00     -0.73    107.78

     hartree stress (kbar)   6644.60     -0.00     -0.00
                               -0.00   7184.10   -336.84
                               -0.00   -336.84   6671.80

     exc-cor stress (kbar)  12837.49      0.00     -0.00
                                0.00  12837.80      0.12
                               -0.00      0.12  12837.27

     corecor stress (kbar) -15398.67     -0.00      0.00
                               -0.00 -15398.17      0.54
                                0.00      0.54 -15397.59

     ewald   stress (kbar)  -7191.10      0.00      0.00
                                0.00  -6469.97   -357.16
                                0.00   -357.16  -7146.78

     hubbard stress (kbar)      0.00      0.00      0.00
                                0.00      0.00      0.00
                                0.00      0.00      0.00

     DFT-D   stress (kbar)      0.00      0.00      0.00
                                0.00      0.00      0.00
                                0.00      0.00      0.00

     XDM     stress (kbar)      0.00      0.00      0.00
                                0.00      0.00      0.00
                                0.00      0.00      0.00

     dft-nl  stress (kbar)      0.00      0.00      0.00
                                0.00      0.00      0.00
                                0.00      0.00      0.00

     TS-vdW  stress (kbar)      0.00      0.00      0.00
                                0.00      0.00      0.00
                                0.00      0.00      0.00


                                0.00      0.00      0.00
                                0.00      0.00      0.00


                                0.00      0.00      0.00


     Writing all to output data dir new_calculations/myprefix.save/
