
     Program PWSCF v.7.0 starts on 20May2023 at 20:59:15 

     This program is part of the open-source Quantum ESPRESSO suite
     for quantum simulation of materials; please cite
         "P. Giannozzi et al., J. Phys.:Condens. Matter 21 395502 (2009);
         "P. Giannozzi et al., J. Phys.:Condens. Matter 29 465901 (2017);
         "P. Giannozzi et al., J. Chem. Phys. 152 154105 (2020);
          URL http://www.quantum-espresso.org", 
     in publications or presentations arising from this work. More details at
     http://www.quantum-espresso.org/quote

     Parallel version (MPI & OpenMP), running on      32 processor cores
     Number of MPI processes:                 1
     Threads/MPI process:                    32

     MPI processes distributed on     1 nodes
     164559 MiB available memory on the printing compute node when the environment starts
 
     Reading input from espresso_7676.pwi
Warning: card &CELL ignored
Warning: card / ignored

     Current dimensions of program PWSCF are:
     Max number of different atomic species (ntypx) = 10
     Max number of k-points (npk) =  40000
     Max angular momentum in pseudopotentials (lmaxx) =  4
     file K.pbe-spn-kjpaw_psl.1.0.0.UPF: wavefunction(s)  3S renormalized

     gamma-point specific algorithms are used

     Subspace diagonalization in iterative solution of the eigenvalue problem:
     a serial algorithm will be used

 
     G-vector sticks info
     --------------------
     sticks:   dense  smooth     PW     G-vecs:    dense   smooth      PW
     Sum        2075    1041    257                91993    32507    4061
 
     Using Slab Decomposition
 


     bravais-lattice index     =            0
     lattice parameter (alat)  =       7.5820  a.u.
     unit-cell volume          =    1465.1260 (a.u.)^3
     number of atoms/cell      =           12
     number of atomic types    =            3
     number of electrons       =        98.00
     number of Kohn-Sham states=           59
     kinetic-energy cutoff     =      30.0000  Ry
     charge density cutoff     =     240.0000  Ry
     scf convergence threshold =      1.0E-06
     mixing beta               =       0.7000
     number of iterations used =            8  plain     mixing
     Exchange-correlation=  SLA  PW   PBX  PBC
                           (   1   4   3   4   0   0   0)

     celldm(1)=   7.582026  celldm(2)=   0.000000  celldm(3)=   0.000000
     celldm(4)=   0.000000  celldm(5)=   0.000000  celldm(6)=   0.000000

     crystal axes: (cart. coord. in units of alat)
               a(1) = (   1.000000   0.000000   0.000000 )  
               a(2) = (   0.480192   1.892379   0.000000 )  
               a(3) = (   0.038258  -2.540316   1.776278 )  

     reciprocal axes: (cart. coord. in units 2 pi/alat)
               b(1) = (  1.000000 -0.253750 -0.384436 )  
               b(2) = (  0.000000  0.528435  0.755733 )  
               b(3) = (  0.000000  0.000000  0.562975 )  


     PseudoPot. # 1 for K  read from file:
     /home/pragov/projects/rrg-bengioy-ad/pragov/crystal_structure_design/SSSP/K.pbe-spn-kjpaw_psl.1.0.0.UPF
     MD5 check sum: 7d58810084cac21f60fbe77ea2b688fd
     Pseudo is Projector augmented-wave + core cor, Zval =  9.0
     Generated using "atomic" code by A. Dal Corso  v.5.1
     Shape of augmentation charge: PSQ
     Using radial grid of 1165 points,  6 beta functions with: 
                l(1) =   0
                l(2) =   0
                l(3) =   1
                l(4) =   1
                l(5) =   2
                l(6) =   2
     Q(r) pseudized with 0 coefficients 


     PseudoPot. # 2 for Ti read from file:
     /home/pragov/projects/rrg-bengioy-ad/pragov/crystal_structure_design/SSSP/ti_pbe_v1.4.uspp.F.UPF
     MD5 check sum: 88a00a6731bd790ddea75d31a80cb452
     Pseudo is Ultrasoft + core correction, Zval = 12.0
     Generated by new atomic code, or converted to UPF format
     Using radial grid of  851 points,  6 beta functions with: 
                l(1) =   0
                l(2) =   0
                l(3) =   1
                l(4) =   1
                l(5) =   2
                l(6) =   2
     Q(r) pseudized with  6 coefficients,  rinner =    1.000   1.000   1.000
                                                       1.000   1.000

     PseudoPot. # 3 for F  read from file:
     /home/pragov/projects/rrg-bengioy-ad/pragov/crystal_structure_design/SSSP/f_pbe_v1.4.uspp.F.UPF
     MD5 check sum: 4c38b6a325caf53ec0e86aed9459de46
     Pseudo is Ultrasoft, Zval =  7.0
     Generated by new atomic code, or converted to UPF format
     Using radial grid of  799 points,  4 beta functions with: 
                l(1) =   0
                l(2) =   0
                l(3) =   1
                l(4) =   1
     Q(r) pseudized with  8 coefficients,  rinner =    0.950   0.950   0.950


     atomic species   valence    mass     pseudopotential
        K              9.00    39.09830     K ( 1.00)
        Ti            12.00    47.86700     Ti( 1.00)
        F              7.00    18.99840     F ( 1.00)

     No symmetry found


                                    s                        frac. trans.

      isym =  1     identity                                     

 cryst.   s( 1) = (     1          0          0      )
                  (     0          1          0      )
                  (     0          0          1      )

 cart.    s( 1) = (  1.0000000 -0.0000000 -0.0000000 )
                  (  0.0000000  1.0000000 -0.0000000 )
                  (  0.0000000  0.0000000  1.0000000 )


   Cartesian axes

     site n.     atom                  positions (alat units)
         1           K   tau(   1) = (   1.2345709   0.4604539   0.3405605  )
         2           K   tau(   2) = (   1.2692036  -1.1060043   1.4339947  )
         3           Ti  tau(   3) = (   0.2543671  -0.5628038   0.5520140  )
         4           Ti  tau(   4) = (   1.2541558  -0.0895060   1.2273603  )
         5           F   tau(   5) = (   1.2535445  -0.5778408   1.0662536  )
         6           F   tau(   6) = (   0.7322606   1.4781595   0.0967397  )
         7           F   tau(   7) = (   0.7712768  -1.5036031   1.2411744  )
         8           F   tau(   8) = (   0.7543059  -0.5715073   0.5420597  )
         9           F   tau(   9) = (   0.7541062  -0.0838611   1.2393964  )
        10           F   tau(  10) = (   0.7344703   0.8512873   0.5397364  )
        11           F   tau(  11) = (   0.7729815  -2.1318521   1.6820573  )
        12           F   tau(  12) = (   0.2593403  -0.0732935   0.7122325  )

   Crystallographic axes

     site n.     atom                  positions (cryst. coord.)
         1           K   tau(   1) = (  0.9868070  0.5006930  0.1917270  )
         2           K   tau(   2) = (  0.9985740  0.4992660  0.8073030  )
         3           Ti  tau(   3) = (  0.1849650  0.1197700  0.3107700  )
         4           Ti  tau(   4) = (  0.8050270  0.8802590  0.6909730  )
         5           F   tau(   5) = (  0.9902660  0.5004520  0.6002740  )
         6           F   tau(   6) = (  0.3199870  0.8542210  0.0544620  )
         7           F   tau(   7) = (  0.6756650  0.1434400  0.6987500  )
         8           F   tau(   8) = (  0.6909390  0.1076480  0.3051660  )
         9           F   tau(   9) = (  0.2989180  0.8923380  0.6977490  )
        10           F   tau(  10) = (  0.3109620  0.8577470  0.3038580  )
        11           F   tau(  11) = (  0.6672970  0.1446410  0.9469560  )
        12           F   tau(  12) = (  0.0041310  0.4995270  0.4009690  )

     number of k points=     1  Methfessel-Paxton smearing, width (Ry)=  0.0010
                       cart. coord. in units 2pi/alat
        k(    1) = (   0.0000000   0.0000000   0.0000000), wk =   2.0000000

                       cryst. coord.
        k(    1) = (   0.0000000   0.0000000   0.0000000), wk =   2.0000000

     Dense  grid:    45997 G-vectors     FFT dimensions: (  40,  75, 120)

     Smooth grid:    16254 G-vectors     FFT dimensions: (  27,  54,  81)

     Dynamical RAM for                 wfc:       1.83 MB

     Dynamical RAM for     wfc (w. buffer):       1.83 MB

     Dynamical RAM for           str. fact:       2.11 MB

     Dynamical RAM for           local pot:       0.00 MB

     Dynamical RAM for          nlocal pot:       4.22 MB

     Dynamical RAM for                qrad:       3.73 MB

     Dynamical RAM for          rho,v,vnew:      10.35 MB

     Dynamical RAM for               rhoin:       3.45 MB

     Dynamical RAM for            rho*nmix:      11.23 MB

     Dynamical RAM for           G-vectors:       2.76 MB

     Dynamical RAM for          h,s,v(r/c):       0.32 MB

     Dynamical RAM for          <psi|beta>:       0.06 MB

     Dynamical RAM for                 psi:       3.66 MB

     Dynamical RAM for                hpsi:       3.66 MB

     Dynamical RAM for                spsi:       3.66 MB

     Dynamical RAM for      wfcinit/wfcrot:       4.33 MB

     Dynamical RAM for           addusdens:     136.16 MB

     Dynamical RAM for          addusforce:     146.37 MB

     Dynamical RAM for         addusstress:     141.07 MB

     Estimated static dynamical RAM per process >      44.98 MB

     Estimated max dynamical RAM per process >     202.58 MB

     Check: negative core charge=   -0.000004

     Initial potential from superposition of free atoms

     starting charge      95.9622, renormalised to      98.0000

     negative rho (up, down):  2.673E-03 0.000E+00
     Starting wfcs are   68 randomized atomic wfcs
     Checking if some PAW data can be deallocated... 

     total cpu time spent up to now is        6.6 secs

     Self-consistent Calculation

     iteration #  1     ecut=    30.00 Ry     beta= 0.70
     Davidson diagonalization with overlap

---- Real-time Memory Report at c_bands before calling an iterative solver
           415 MiB given to the printing process from OS
             0 MiB allocation reported by mallinfo(arena+hblkhd)
        164367 MiB available memory on the node where the printing process lives
------------------
     ethr =  1.00E-02,  avg # of iterations =  2.0

     Threshold (ethr) on eigenvalues was too large:
     Diagonalizing with lowered threshold

     Davidson diagonalization with overlap

---- Real-time Memory Report at c_bands before calling an iterative solver
           505 MiB given to the printing process from OS
             0 MiB allocation reported by mallinfo(arena+hblkhd)
        164353 MiB available memory on the node where the printing process lives
------------------
     ethr =  6.67E-04,  avg # of iterations =  1.0

     negative rho (up, down):  1.697E-03 0.000E+00

     total cpu time spent up to now is        8.1 secs

     total energy              =    -854.32607597 Ry
     estimated scf accuracy    <       0.65332996 Ry

     iteration #  2     ecut=    30.00 Ry     beta= 0.70
     Davidson diagonalization with overlap

---- Real-time Memory Report at c_bands before calling an iterative solver
           524 MiB given to the printing process from OS
             0 MiB allocation reported by mallinfo(arena+hblkhd)
        164332 MiB available memory on the node where the printing process lives
------------------
     ethr =  6.67E-04,  avg # of iterations =  3.0

     negative rho (up, down):  1.822E-03 0.000E+00

     total cpu time spent up to now is        9.1 secs

     total energy              =    -854.46260481 Ry
     estimated scf accuracy    <       0.46147496 Ry

     iteration #  3     ecut=    30.00 Ry     beta= 0.70
     Davidson diagonalization with overlap

---- Real-time Memory Report at c_bands before calling an iterative solver
           542 MiB given to the printing process from OS
             0 MiB allocation reported by mallinfo(arena+hblkhd)
        164307 MiB available memory on the node where the printing process lives
------------------
     ethr =  4.71E-04,  avg # of iterations =  2.0

     negative rho (up, down):  1.827E-03 0.000E+00

     total cpu time spent up to now is        9.9 secs

     total energy              =    -854.42008593 Ry
     estimated scf accuracy    <       1.03736697 Ry

     iteration #  4     ecut=    30.00 Ry     beta= 0.70
     Davidson diagonalization with overlap

---- Real-time Memory Report at c_bands before calling an iterative solver
           551 MiB given to the printing process from OS
             0 MiB allocation reported by mallinfo(arena+hblkhd)
        164312 MiB available memory on the node where the printing process lives
------------------
     ethr =  4.71E-04,  avg # of iterations =  2.0

     negative rho (up, down):  1.709E-03 0.000E+00

     total cpu time spent up to now is       10.8 secs

     total energy              =    -854.53487710 Ry
     estimated scf accuracy    <       1.43974986 Ry

     iteration #  5     ecut=    30.00 Ry     beta= 0.70
     Davidson diagonalization with overlap

---- Real-time Memory Report at c_bands before calling an iterative solver
           553 MiB given to the printing process from OS
             0 MiB allocation reported by mallinfo(arena+hblkhd)
        164309 MiB available memory on the node where the printing process lives
------------------
     ethr =  4.71E-04,  avg # of iterations =  1.0

     negative rho (up, down):  1.694E-03 0.000E+00

     total cpu time spent up to now is       13.6 secs

     total energy              =    -854.53330232 Ry
     estimated scf accuracy    <       0.64035656 Ry

     iteration #  6     ecut=    30.00 Ry     beta= 0.70
     Davidson diagonalization with overlap

---- Real-time Memory Report at c_bands before calling an iterative solver
           553 MiB given to the printing process from OS
             0 MiB allocation reported by mallinfo(arena+hblkhd)
        164307 MiB available memory on the node where the printing process lives
------------------
     ethr =  4.71E-04,  avg # of iterations =  1.0

     negative rho (up, down):  1.688E-03 0.000E+00

     total cpu time spent up to now is       14.4 secs

     total energy              =    -854.52574084 Ry
     estimated scf accuracy    <       0.27071519 Ry

     iteration #  7     ecut=    30.00 Ry     beta= 0.70
     Davidson diagonalization with overlap

---- Real-time Memory Report at c_bands before calling an iterative solver
           556 MiB given to the printing process from OS
             0 MiB allocation reported by mallinfo(arena+hblkhd)
        164294 MiB available memory on the node where the printing process lives
------------------
     ethr =  2.76E-04,  avg # of iterations =  1.0

     negative rho (up, down):  1.680E-03 0.000E+00

     total cpu time spent up to now is       15.3 secs

     total energy              =    -854.53026219 Ry
     estimated scf accuracy    <       0.97445361 Ry

     iteration #  8     ecut=    30.00 Ry     beta= 0.70
     Davidson diagonalization with overlap

---- Real-time Memory Report at c_bands before calling an iterative solver
           556 MiB given to the printing process from OS
             0 MiB allocation reported by mallinfo(arena+hblkhd)
        164308 MiB available memory on the node where the printing process lives
------------------
     ethr =  2.76E-04,  avg # of iterations =  1.0

     negative rho (up, down):  1.672E-03 0.000E+00

     total cpu time spent up to now is       16.2 secs

     total energy              =    -854.54142284 Ry
     estimated scf accuracy    <       0.07479823 Ry

     iteration #  9     ecut=    30.00 Ry     beta= 0.70
     Davidson diagonalization with overlap

---- Real-time Memory Report at c_bands before calling an iterative solver
           556 MiB given to the printing process from OS
             0 MiB allocation reported by mallinfo(arena+hblkhd)
        164306 MiB available memory on the node where the printing process lives
------------------
     ethr =  7.63E-05,  avg # of iterations =  1.0

     negative rho (up, down):  1.659E-03 0.000E+00

     total cpu time spent up to now is       17.0 secs

     total energy              =    -854.54007638 Ry
     estimated scf accuracy    <       0.08882880 Ry

     iteration # 10     ecut=    30.00 Ry     beta= 0.70
     Davidson diagonalization with overlap

---- Real-time Memory Report at c_bands before calling an iterative solver
           556 MiB given to the printing process from OS
             0 MiB allocation reported by mallinfo(arena+hblkhd)
        164294 MiB available memory on the node where the printing process lives
------------------
     ethr =  7.63E-05,  avg # of iterations =  1.0

     negative rho (up, down):  1.654E-03 0.000E+00

     total cpu time spent up to now is       17.9 secs

     total energy              =    -854.54124600 Ry
     estimated scf accuracy    <       0.02069635 Ry

     iteration # 11     ecut=    30.00 Ry     beta= 0.70
     Davidson diagonalization with overlap

---- Real-time Memory Report at c_bands before calling an iterative solver
           556 MiB given to the printing process from OS
             0 MiB allocation reported by mallinfo(arena+hblkhd)
        164298 MiB available memory on the node where the printing process lives
------------------
     ethr =  2.11E-05,  avg # of iterations =  1.0

     negative rho (up, down):  1.659E-03 0.000E+00

     total cpu time spent up to now is       18.7 secs

     total energy              =    -854.54244582 Ry
     estimated scf accuracy    <       0.30576431 Ry

     iteration # 12     ecut=    30.00 Ry     beta= 0.70
     Davidson diagonalization with overlap

---- Real-time Memory Report at c_bands before calling an iterative solver
           556 MiB given to the printing process from OS
             0 MiB allocation reported by mallinfo(arena+hblkhd)
        164309 MiB available memory on the node where the printing process lives
------------------
     ethr =  2.11E-05,  avg # of iterations =  1.0

     negative rho (up, down):  1.659E-03 0.000E+00

     total cpu time spent up to now is       19.6 secs

     total energy              =    -854.54080068 Ry
     estimated scf accuracy    <       0.28215900 Ry

     iteration # 13     ecut=    30.00 Ry     beta= 0.70
     Davidson diagonalization with overlap

---- Real-time Memory Report at c_bands before calling an iterative solver
           556 MiB given to the printing process from OS
             0 MiB allocation reported by mallinfo(arena+hblkhd)
        164309 MiB available memory on the node where the printing process lives
------------------
     ethr =  2.11E-05,  avg # of iterations =  1.0

     negative rho (up, down):  1.659E-03 0.000E+00

     total cpu time spent up to now is       20.5 secs

     total energy              =    -854.54184174 Ry
     estimated scf accuracy    <       0.02816008 Ry

     iteration # 14     ecut=    30.00 Ry     beta= 0.70
     Davidson diagonalization with overlap

---- Real-time Memory Report at c_bands before calling an iterative solver
           557 MiB given to the printing process from OS
             0 MiB allocation reported by mallinfo(arena+hblkhd)
        164293 MiB available memory on the node where the printing process lives
------------------
     ethr =  2.11E-05,  avg # of iterations =  1.0

     negative rho (up, down):  1.657E-03 0.000E+00

     total cpu time spent up to now is       21.3 secs

     total energy              =    -854.54263222 Ry
     estimated scf accuracy    <       0.00432311 Ry

     iteration # 15     ecut=    30.00 Ry     beta= 0.70
     Davidson diagonalization with overlap

---- Real-time Memory Report at c_bands before calling an iterative solver
           557 MiB given to the printing process from OS
             0 MiB allocation reported by mallinfo(arena+hblkhd)
        164296 MiB available memory on the node where the printing process lives
------------------
     ethr =  4.41E-06,  avg # of iterations =  1.0

     negative rho (up, down):  1.656E-03 0.000E+00

     total cpu time spent up to now is       22.1 secs

     total energy              =    -854.54235012 Ry
     estimated scf accuracy    <       0.00964496 Ry

     iteration # 16     ecut=    30.00 Ry     beta= 0.70
     Davidson diagonalization with overlap

---- Real-time Memory Report at c_bands before calling an iterative solver
           557 MiB given to the printing process from OS
             0 MiB allocation reported by mallinfo(arena+hblkhd)
        164311 MiB available memory on the node where the printing process lives
------------------
     ethr =  4.41E-06,  avg # of iterations =  1.0

     negative rho (up, down):  1.657E-03 0.000E+00

     total cpu time spent up to now is       23.0 secs

     total energy              =    -854.54247636 Ry
     estimated scf accuracy    <       0.00270897 Ry

     iteration # 17     ecut=    30.00 Ry     beta= 0.70
     Davidson diagonalization with overlap

---- Real-time Memory Report at c_bands before calling an iterative solver
           557 MiB given to the printing process from OS
             0 MiB allocation reported by mallinfo(arena+hblkhd)
        164311 MiB available memory on the node where the printing process lives
------------------
     ethr =  2.76E-06,  avg # of iterations =  1.0

     negative rho (up, down):  1.657E-03 0.000E+00

     total cpu time spent up to now is       23.8 secs

     total energy              =    -854.54261392 Ry
     estimated scf accuracy    <       0.00024666 Ry

     iteration # 18     ecut=    30.00 Ry     beta= 0.70
     Davidson diagonalization with overlap

---- Real-time Memory Report at c_bands before calling an iterative solver
           557 MiB given to the printing process from OS
             0 MiB allocation reported by mallinfo(arena+hblkhd)
        164297 MiB available memory on the node where the printing process lives
------------------
     ethr =  2.52E-07,  avg # of iterations =  1.0

     negative rho (up, down):  1.657E-03 0.000E+00

     total cpu time spent up to now is       24.6 secs

     total energy              =    -854.54266672 Ry
     estimated scf accuracy    <       0.00004480 Ry

     iteration # 19     ecut=    30.00 Ry     beta= 0.70
     Davidson diagonalization with overlap

---- Real-time Memory Report at c_bands before calling an iterative solver
           557 MiB given to the printing process from OS
             0 MiB allocation reported by mallinfo(arena+hblkhd)
        164297 MiB available memory on the node where the printing process lives
------------------
     ethr =  4.57E-08,  avg # of iterations =  1.0

     negative rho (up, down):  1.657E-03 0.000E+00

     total cpu time spent up to now is       25.4 secs

     total energy              =    -854.54267631 Ry
     estimated scf accuracy    <       0.00002611 Ry

     iteration # 20     ecut=    30.00 Ry     beta= 0.70
     Davidson diagonalization with overlap

---- Real-time Memory Report at c_bands before calling an iterative solver
           557 MiB given to the printing process from OS
             0 MiB allocation reported by mallinfo(arena+hblkhd)
        164309 MiB available memory on the node where the printing process lives
------------------
     ethr =  2.66E-08,  avg # of iterations =  1.0

     negative rho (up, down):  1.657E-03 0.000E+00

     total cpu time spent up to now is       26.2 secs

     total energy              =    -854.54267464 Ry
     estimated scf accuracy    <       0.00004090 Ry

     iteration # 21     ecut=    30.00 Ry     beta= 0.70
     Davidson diagonalization with overlap

---- Real-time Memory Report at c_bands before calling an iterative solver
           557 MiB given to the printing process from OS
             0 MiB allocation reported by mallinfo(arena+hblkhd)
        164309 MiB available memory on the node where the printing process lives
------------------
     ethr =  2.66E-08,  avg # of iterations =  1.0

     negative rho (up, down):  1.657E-03 0.000E+00

     total cpu time spent up to now is       27.1 secs

     total energy              =    -854.54265498 Ry
     estimated scf accuracy    <       0.00042938 Ry

     iteration # 22     ecut=    30.00 Ry     beta= 0.70
     Davidson diagonalization with overlap

---- Real-time Memory Report at c_bands before calling an iterative solver
           557 MiB given to the printing process from OS
             0 MiB allocation reported by mallinfo(arena+hblkhd)
        164298 MiB available memory on the node where the printing process lives
------------------
     ethr =  2.66E-08,  avg # of iterations =  1.0

     negative rho (up, down):  1.657E-03 0.000E+00

     total cpu time spent up to now is       27.9 secs

     total energy              =    -854.54262010 Ry
     estimated scf accuracy    <       0.00068660 Ry

     iteration # 23     ecut=    30.00 Ry     beta= 0.70
     Davidson diagonalization with overlap

---- Real-time Memory Report at c_bands before calling an iterative solver
           557 MiB given to the printing process from OS
             0 MiB allocation reported by mallinfo(arena+hblkhd)
        164300 MiB available memory on the node where the printing process lives
------------------
     ethr =  2.66E-08,  avg # of iterations =  1.0

     negative rho (up, down):  1.657E-03 0.000E+00

     total cpu time spent up to now is       28.7 secs

     total energy              =    -854.54260699 Ry
     estimated scf accuracy    <       0.00065653 Ry

     iteration # 24     ecut=    30.00 Ry     beta= 0.70
     Davidson diagonalization with overlap

---- Real-time Memory Report at c_bands before calling an iterative solver
           557 MiB given to the printing process from OS
             0 MiB allocation reported by mallinfo(arena+hblkhd)
        164314 MiB available memory on the node where the printing process lives
------------------
     ethr =  2.66E-08,  avg # of iterations =  1.0

     negative rho (up, down):  1.657E-03 0.000E+00

     total cpu time spent up to now is       29.5 secs

     total energy              =    -854.54260394 Ry
     estimated scf accuracy    <       0.00065070 Ry

     iteration # 25     ecut=    30.00 Ry     beta= 0.70
     Davidson diagonalization with overlap

---- Real-time Memory Report at c_bands before calling an iterative solver
           557 MiB given to the printing process from OS
             0 MiB allocation reported by mallinfo(arena+hblkhd)
        164312 MiB available memory on the node where the printing process lives
------------------
     ethr =  2.66E-08,  avg # of iterations =  1.0

     negative rho (up, down):  1.657E-03 0.000E+00

     total cpu time spent up to now is       30.4 secs

     total energy              =    -854.54261167 Ry
     estimated scf accuracy    <       0.00053792 Ry

     iteration # 26     ecut=    30.00 Ry     beta= 0.70
     Davidson diagonalization with overlap

---- Real-time Memory Report at c_bands before calling an iterative solver
           557 MiB given to the printing process from OS
             0 MiB allocation reported by mallinfo(arena+hblkhd)
        164298 MiB available memory on the node where the printing process lives
------------------
     ethr =  2.66E-08,  avg # of iterations =  1.0

     negative rho (up, down):  1.658E-03 0.000E+00

     total cpu time spent up to now is       31.2 secs

     total energy              =    -854.54263616 Ry
     estimated scf accuracy    <       0.00024859 Ry

     iteration # 27     ecut=    30.00 Ry     beta= 0.70
     Davidson diagonalization with overlap

---- Real-time Memory Report at c_bands before calling an iterative solver
           557 MiB given to the printing process from OS
             0 MiB allocation reported by mallinfo(arena+hblkhd)
        164304 MiB available memory on the node where the printing process lives
------------------
     ethr =  2.66E-08,  avg # of iterations =  1.0

     negative rho (up, down):  1.657E-03 0.000E+00

     total cpu time spent up to now is       32.0 secs

     total energy              =    -854.54266832 Ry
     estimated scf accuracy    <       0.00003122 Ry

     iteration # 28     ecut=    30.00 Ry     beta= 0.70
     Davidson diagonalization with overlap

---- Real-time Memory Report at c_bands before calling an iterative solver
           557 MiB given to the printing process from OS
             0 MiB allocation reported by mallinfo(arena+hblkhd)
        164314 MiB available memory on the node where the printing process lives
------------------
     ethr =  2.66E-08,  avg # of iterations =  1.0

     negative rho (up, down):  1.657E-03 0.000E+00

     total cpu time spent up to now is       32.9 secs

     total energy              =    -854.54267786 Ry
     estimated scf accuracy    <       0.00000692 Ry

     iteration # 29     ecut=    30.00 Ry     beta= 0.70
     Davidson diagonalization with overlap

---- Real-time Memory Report at c_bands before calling an iterative solver
           557 MiB given to the printing process from OS
             0 MiB allocation reported by mallinfo(arena+hblkhd)
        164315 MiB available memory on the node where the printing process lives
------------------
     ethr =  7.06E-09,  avg # of iterations =  1.0

     negative rho (up, down):  1.657E-03 0.000E+00

     total cpu time spent up to now is       33.7 secs

     total energy              =    -854.54267625 Ry
     estimated scf accuracy    <       0.00003367 Ry

     iteration # 30     ecut=    30.00 Ry     beta= 0.70
     Davidson diagonalization with overlap

---- Real-time Memory Report at c_bands before calling an iterative solver
           557 MiB given to the printing process from OS
             0 MiB allocation reported by mallinfo(arena+hblkhd)
        164305 MiB available memory on the node where the printing process lives
------------------
     ethr =  7.06E-09,  avg # of iterations =  1.0

     negative rho (up, down):  1.657E-03 0.000E+00

     total cpu time spent up to now is       34.5 secs

     total energy              =    -854.54267371 Ry
     estimated scf accuracy    <       0.00004169 Ry

     iteration # 31     ecut=    30.00 Ry     beta= 0.70
     Davidson diagonalization with overlap

---- Real-time Memory Report at c_bands before calling an iterative solver
           557 MiB given to the printing process from OS
             0 MiB allocation reported by mallinfo(arena+hblkhd)
        164300 MiB available memory on the node where the printing process lives
------------------
     ethr =  7.06E-09,  avg # of iterations =  1.0

     negative rho (up, down):  1.657E-03 0.000E+00

     total cpu time spent up to now is       35.4 secs

     total energy              =    -854.54267520 Ry
     estimated scf accuracy    <       0.00001492 Ry

     iteration # 32     ecut=    30.00 Ry     beta= 0.70
     Davidson diagonalization with overlap

---- Real-time Memory Report at c_bands before calling an iterative solver
           557 MiB given to the printing process from OS
             0 MiB allocation reported by mallinfo(arena+hblkhd)
        164312 MiB available memory on the node where the printing process lives
------------------
     ethr =  7.06E-09,  avg # of iterations =  1.0

     negative rho (up, down):  1.657E-03 0.000E+00

     total cpu time spent up to now is       36.2 secs

     End of self-consistent calculation

          k = 0.0000 0.0000 0.0000 (  2031 PWs)   bands (ev):

   -53.8746 -53.8688 -30.3961 -30.3637 -30.3102 -30.1931 -29.8799 -29.8748
   -25.6731 -25.6634 -20.3371 -20.0661 -19.5219 -19.4887 -19.4197 -19.4173
   -19.0635 -19.0464  -9.2086  -9.1748  -9.1480  -9.1309  -9.0990  -9.0891
    -2.7578  -2.6640  -2.6189  -2.0398  -1.8618  -1.7144  -1.4625  -1.3660
    -1.3241  -1.3117  -1.2167  -1.1457  -0.9535  -0.9008  -0.8079  -0.7565
    -0.7195  -0.4716  -0.3356  -0.2147  -0.1848  -0.1089   0.0115   0.0741
     5.2378   5.2407   5.3529   5.4729   5.5895   5.6322   6.6562   6.8521
     6.8552   6.9213   7.5786

     occupation numbers 
     1.0000   1.0000   1.0000   1.0000   1.0000   1.0000   1.0000   1.0000
     1.0000   1.0000   1.0000   1.0000   1.0000   1.0000   1.0000   1.0000
     1.0000   1.0000   1.0000   1.0000   1.0000   1.0000   1.0000   1.0000
     1.0000   1.0000   1.0000   1.0000   1.0000   1.0000   1.0000   1.0000
     1.0000   1.0000   1.0000   1.0000   1.0000   1.0000   1.0000   1.0000
     1.0000   1.0000   1.0000   1.0000   1.0000   1.0000   1.0000   1.0000
     0.5897   0.4103  -0.0000  -0.0000  -0.0000  -0.0000  -0.0000  -0.0000
    -0.0000  -0.0000  -0.0000

     the Fermi energy is     5.2392 ev

!    total energy              =    -854.54267755 Ry
     estimated scf accuracy    <       0.00000054 Ry
     smearing contrib. (-TS)   =      -0.00054510 Ry
     internal energy E=F+TS    =    -854.54213245 Ry

     The total energy is F=E-TS. E is the sum of the following terms:
     one-electron contribution =    -536.52689795 Ry
     hartree contribution      =     307.38855659 Ry
     xc contribution           =    -133.78402520 Ry
     ewald contribution        =    -380.78523330 Ry
     one-center paw contrib.   =    -110.83453259 Ry
      -> PAW hartree energy AE =      75.56691735 Ry
      -> PAW hartree energy PS =     -75.14636913 Ry
      -> PAW xc energy AE      =    -132.45882214 Ry
      -> PAW xc energy PS      =      21.20374133 Ry
      -> total E_H with PAW    =     307.80910481 Ry
      -> total E_XC with PAW   =    -245.03910600 Ry

     convergence has been achieved in  32 iterations

     negative rho (up, down):  1.657E-03 0.000E+00

     Forces acting on atoms (cartesian axes, Ry/au):

     atom    1 type  1   force =     0.00021800    0.01090672   -0.00761720
     atom    2 type  1   force =     0.00052136   -0.01296878    0.00909133
     atom    3 type  2   force =     0.00041005    0.00852568    0.00585939
     atom    4 type  2   force =     0.00033140   -0.00234891   -0.01021246
     atom    5 type  3   force =     0.00007082    0.02267518   -0.01579500
     atom    6 type  3   force =     0.00030060   -0.00727489    0.01199137
     atom    7 type  3   force =     0.00033315   -0.01320003    0.00285629
     atom    8 type  3   force =     0.00012030   -0.01228676   -0.01446521
     atom    9 type  3   force =    -0.00032645    0.00854035    0.01699631
     atom   10 type  3   force =     0.00008603    0.01261971   -0.00330463
     atom   11 type  3   force =     0.00034097    0.00744395   -0.01120024
     atom   12 type  3   force =    -0.00240621   -0.02263222    0.01580005
     The non-local contrib.  to forces
     atom    1 type  1   force =    -0.00149532   -0.00121719    0.00092302
     atom    2 type  1   force =     0.00221562   -0.00015393    0.00002666
     atom    3 type  2   force =    -0.00045584    0.01050302    0.01520645
     atom    4 type  2   force =    -0.00008991   -0.01093184   -0.01499583
     atom    5 type  3   force =     0.00512665    0.53127473   -0.37161377
     atom    6 type  3   force =     0.00602685   -0.27861151    0.69463696
     atom    7 type  3   force =     0.00769770   -0.75064290    0.02770408
     atom    8 type  3   force =    -0.00089654    0.03059404    0.02692266
     atom    9 type  3   force =    -0.00174621   -0.00815134   -0.04213816
     atom   10 type  3   force =     0.00164905    0.74956174   -0.03415171
     atom   11 type  3   force =     0.00454049    0.28432923   -0.69176631
     atom   12 type  3   force =    -0.02663676   -0.53622581    0.37481231
     The ionic contribution  to forces
     atom    1 type  1   force =    -0.11459792   -0.94152118    0.62606770
     atom    2 type  1   force =     0.13362717    0.64037137   -0.41263633
     atom    3 type  2   force =    -0.02067650   -3.65861461   -5.61774692
     atom    4 type  2   force =    -0.00421288    3.96509220    5.39700942
     atom    5 type  3   force =    -0.07888275  -12.19542174    8.57059228
     atom    6 type  3   force =    -0.06905871    4.95063612  -12.10332055
     atom    7 type  3   force =    -0.08231560   13.09904067   -0.53243537
     atom    8 type  3   force =     0.01343913   -2.11644354   -3.06690619
     atom    9 type  3   force =     0.00509068    2.10076886    3.07498775
     atom   10 type  3   force =     0.01591215  -13.16524776    0.56548830
     atom   11 type  3   force =     0.00094754   -5.00571069   12.15746481
     atom   12 type  3   force =     0.20072766   12.32705027   -8.65856489
     The local contribution  to forces
     atom    1 type  1   force =     0.11624484    0.95357207   -0.63455016
     atom    2 type  1   force =    -0.13523444   -0.65315196    0.42166663
     atom    3 type  2   force =     0.02151500    3.65456237    5.60573286
     atom    4 type  2   force =     0.00461209   -3.95468322   -5.38936046
     atom    5 type  3   force =     0.07382934   11.68710588   -8.21495225
     atom    6 type  3   force =     0.06333135   -4.67947900   11.42063369
     atom    7 type  3   force =     0.07494996  -12.36164161    0.50776722
     atom    8 type  3   force =    -0.01242159    2.07358452    3.02554478
     atom    9 type  3   force =    -0.00367021   -2.08408700   -3.01587976
     atom   10 type  3   force =    -0.01747385   12.42833446   -0.53483968
     atom   11 type  3   force =    -0.00514599    4.72903563  -11.47688939
     atom   12 type  3   force =    -0.17649764  -11.81373404    8.29977731
     The core correction contribution to forces
     atom    1 type  1   force =     0.00006715    0.00012055   -0.00008484
     atom    2 type  1   force =    -0.00008526   -0.00008369    0.00006166
     atom    3 type  2   force =     0.00002819    0.00208562    0.00266943
     atom    4 type  2   force =     0.00002387   -0.00180674   -0.00286857
     atom    5 type  3   force =     0.00000000    0.00000000    0.00000000
     atom    6 type  3   force =     0.00000000    0.00000000    0.00000000
     atom    7 type  3   force =     0.00000000    0.00000000    0.00000000
     atom    8 type  3   force =     0.00000000    0.00000000    0.00000000
     atom    9 type  3   force =     0.00000000    0.00000000    0.00000000
     atom   10 type  3   force =     0.00000000    0.00000000    0.00000000
     atom   11 type  3   force =     0.00000000    0.00000000    0.00000000
     atom   12 type  3   force =     0.00000000    0.00000000    0.00000000
     The Hubbard contrib.    to forces
     atom    1 type  1   force =     0.00000000    0.00000000    0.00000000
     atom    2 type  1   force =     0.00000000    0.00000000    0.00000000
     atom    3 type  2   force =     0.00000000    0.00000000    0.00000000
     atom    4 type  2   force =     0.00000000    0.00000000    0.00000000
     atom    5 type  3   force =     0.00000000    0.00000000    0.00000000
     atom    6 type  3   force =     0.00000000    0.00000000    0.00000000
     atom    7 type  3   force =     0.00000000    0.00000000    0.00000000
     atom    8 type  3   force =     0.00000000    0.00000000    0.00000000
     atom    9 type  3   force =     0.00000000    0.00000000    0.00000000
     atom   10 type  3   force =     0.00000000    0.00000000    0.00000000
     atom   11 type  3   force =     0.00000000    0.00000000    0.00000000
     atom   12 type  3   force =     0.00000000    0.00000000    0.00000000
     The SCF correction term to forces
     atom    1 type  1   force =     0.00000007   -0.00004773    0.00002793
     atom    2 type  1   force =    -0.00000092    0.00004923   -0.00002645
     atom    3 type  2   force =     0.00000000   -0.00001091   -0.00000159
     atom    4 type  2   force =    -0.00000097   -0.00001952    0.00000382
     atom    5 type  3   force =    -0.00000162   -0.00028388    0.00017959
     atom    6 type  3   force =     0.00000192    0.00017931    0.00004212
     atom    7 type  3   force =     0.00000189    0.00004361   -0.00017881
     atom    8 type  3   force =     0.00000010   -0.00002198   -0.00002561
     atom    9 type  3   force =     0.00000009    0.00000963    0.00002732
     atom   10 type  3   force =    -0.00000052   -0.00002893    0.00019930
     atom   11 type  3   force =    -0.00000027   -0.00021042   -0.00000851
     atom   12 type  3   force =     0.00000133    0.00027715   -0.00022384

     Total force =     0.060243     Total SCF correction =     0.000633


     Computing stress (Cartesian axis) and pressure


     negative rho (up, down):  1.657E-03 0.000E+00
          total   stress  (Ry/bohr**3)                   (kbar)     P=      -65.43
   0.00041630  -0.00000331  -0.00000018           61.24       -0.49       -0.03
  -0.00000331  -0.00088198   0.00002334           -0.49     -129.74        3.43
  -0.00000018   0.00002334  -0.00086873           -0.03        3.43     -127.79

     kinetic stress (kbar)  16215.33      0.07      0.37
                                0.07  15874.39     17.23
                                0.37     17.23  15887.29

     local   stress (kbar) -19095.77     41.77    -24.80
                               41.77  -6475.35  -7408.29
                              -24.80  -7408.29 -11849.09

     nonloc. stress (kbar)   3084.34     -0.04     -0.19
                               -0.04   2972.87      8.14
                               -0.19      8.14   2978.96

     hartree stress (kbar)  13457.35    -13.64      7.72
                              -13.64   7422.28   3530.43
                                7.72   3530.43   9983.52

     exc-cor stress (kbar)  -2862.50     -0.03      0.02
                               -0.03  -2861.55     -0.54
                                0.02     -0.54  -2861.96

     corecor stress (kbar)  -1281.57      0.00     -0.01
                                0.00  -1275.90     -0.75
                               -0.01     -0.75  -1276.45

     ewald   stress (kbar)  -9455.95    -28.63     16.85
                              -28.63 -15786.49   3857.21
                               16.85   3857.21 -12990.07

     hubbard stress (kbar)      0.00      0.00      0.00
                                0.00      0.00      0.00
                                0.00      0.00      0.00

     DFT-D   stress (kbar)      0.00      0.00      0.00
                                0.00      0.00      0.00
                                0.00      0.00      0.00

     XDM     stress (kbar)      0.00      0.00      0.00
                                0.00      0.00      0.00
                                0.00      0.00      0.00

     dft-nl  stress (kbar)      0.00      0.00      0.00
                                0.00      0.00      0.00
                                0.00      0.00      0.00

     TS-vdW  stress (kbar)      0.00      0.00      0.00
                                0.00      0.00      0.00
                                0.00      0.00      0.00


                                0.00      0.00      0.00
                                0.00      0.00      0.00


                                0.00      0.00      0.00


     Writing all to output data dir new_calculations/myprefix.save/
 
     init_run     :    136.32s CPU      6.38s WALL (       1 calls)
     electrons    :    889.25s CPU     29.60s WALL (       1 calls)
     forces       :      7.72s CPU      0.25s WALL (       1 calls)
     stress       :     20.09s CPU      0.65s WALL (       1 calls)

     Called by init_run:
     wfcinit      :     21.43s CPU      0.69s WALL (       1 calls)
     wfcinit:atom :      0.04s CPU      0.00s WALL (       1 calls)
     wfcinit:wfcr :     21.15s CPU      0.68s WALL (       1 calls)
     potinit      :     20.35s CPU      0.69s WALL (       1 calls)
     hinit0       :     84.06s CPU      4.62s WALL (       1 calls)

     Called by electrons:
     c_bands      :    407.98s CPU     13.07s WALL (      33 calls)
     sum_band     :    212.45s CPU      7.60s WALL (      33 calls)
     v_of_rho     :     39.30s CPU      1.31s WALL (      33 calls)
     v_h          :      3.03s CPU      0.10s WALL (      33 calls)
     v_xc         :     38.15s CPU      1.27s WALL (      35 calls)
     newd         :     98.50s CPU      3.29s WALL (      33 calls)
     PAW_pot      :    123.63s CPU      4.11s WALL (      33 calls)
     mix_rho      :     10.54s CPU      0.35s WALL (      33 calls)

     Called by c_bands:
     init_us_2    :      0.96s CPU      0.04s WALL (      67 calls)
     init_us_2:cp :      0.85s CPU      0.03s WALL (      67 calls)
     regterg      :    404.47s CPU     12.95s WALL (      33 calls)

     Called by sum_band:
     sum_band:wei :      0.10s CPU      0.00s WALL (      33 calls)
     sum_band:loo :     95.47s CPU      3.06s WALL (      33 calls)
     sum_band:buf :      0.02s CPU      0.00s WALL (      33 calls)
     sum_band:ini :      0.42s CPU      0.01s WALL (      33 calls)
     sum_band:cal :      0.31s CPU      0.01s WALL (      33 calls)
     sum_band:bec :      0.15s CPU      0.00s WALL (      33 calls)
     addusdens    :    110.40s CPU      4.32s WALL (      33 calls)
     addusd:skk   :      0.52s CPU      0.02s WALL (      99 calls)
     addusd:dgemm :      4.75s CPU      0.80s WALL (      99 calls)
     addusd:qvan2 :     64.44s CPU      2.09s WALL (      99 calls)

     Called by *egterg:
     rdiaghg      :      7.42s CPU      0.25s WALL (      70 calls)
     regterg:over :      0.40s CPU      0.01s WALL (      38 calls)
     regterg:upda :      0.84s CPU      0.03s WALL (      38 calls)
     regterg:last :      1.00s CPU      0.03s WALL (      37 calls)
     h_psi        :    409.97s CPU     13.10s WALL (      72 calls)
     s_psi        :      0.28s CPU      0.01s WALL (      72 calls)
     g_psi        :      0.06s CPU      0.00s WALL (      38 calls)

     Called by h_psi:
     h_psi:calbec :      0.80s CPU      0.03s WALL (      72 calls)
     vloc_psi     :    408.08s CPU     13.03s WALL (      72 calls)
     add_vuspsi   :      0.51s CPU      0.02s WALL (      72 calls)

     General routines
     calbec       :      0.99s CPU      0.04s WALL (     110 calls)
     fft          :     71.84s CPU      2.62s WALL (     382 calls)
     ffts         :     11.84s CPU      0.39s WALL (      66 calls)
     fftw         :    430.34s CPU     13.67s WALL (    5094 calls)
     interpolate  :     14.83s CPU      0.49s WALL (      33 calls)
 
     Parallel routines

     PAW routines
     PAW_pot      :    123.63s CPU      4.11s WALL (      33 calls)
 
     PWSCF        :  17m39.71s CPU     39.45s WALL

 
   This run was terminated on:  20:59:54  20May2023            

=------------------------------------------------------------------------------=
   JOB DONE.
=------------------------------------------------------------------------------=
