
     Program PWSCF v.7.0 starts on 21May2023 at  4:21:13 

     This program is part of the open-source Quantum ESPRESSO suite
     for quantum simulation of materials; please cite
         "P. Giannozzi et al., J. Phys.:Condens. Matter 21 395502 (2009);
         "P. Giannozzi et al., J. Phys.:Condens. Matter 29 465901 (2017);
         "P. Giannozzi et al., J. Chem. Phys. 152 154105 (2020);
          URL http://www.quantum-espresso.org", 
     in publications or presentations arising from this work. More details at
     http://www.quantum-espresso.org/quote

     Parallel version (MPI & OpenMP), running on      32 processor cores
     Number of MPI processes:                 1
     Threads/MPI process:                    32

     MPI processes distributed on     1 nodes
     78534 MiB available memory on the printing compute node when the environment starts
 
     Reading input from espresso_13918.pwi
Warning: card &CELL ignored
Warning: card / ignored

     Current dimensions of program PWSCF are:
     Max number of different atomic species (ntypx) = 10
     Max number of k-points (npk) =  40000
     Max angular momentum in pseudopotentials (lmaxx) =  4
     file Mg.pbe-n-kjpaw_psl.0.3.0.UPF: wavefunction(s)  3S renormalized

     gamma-point specific algorithms are used

     Subspace diagonalization in iterative solution of the eigenvalue problem:
     a serial algorithm will be used

 
     G-vector sticks info
     --------------------
     sticks:   dense  smooth     PW     G-vecs:    dense   smooth      PW
     Sum        2225    1117    279                64385    22861    2857
 
     Using Slab Decomposition
 


     bravais-lattice index     =            0
     lattice parameter (alat)  =      12.1929  a.u.
     unit-cell volume          =    1026.0856 (a.u.)^3
     number of atoms/cell      =            6
     number of atomic types    =            2
     number of electrons       =       102.00
     number of Kohn-Sham states=           61
     kinetic-energy cutoff     =      30.0000  Ry
     charge density cutoff     =     240.0000  Ry
     scf convergence threshold =      1.0E-06
     mixing beta               =       0.7000
     number of iterations used =            8  plain     mixing
     Exchange-correlation= PBE
                           (   1   4   3   4   0   0   0)

     celldm(1)=  12.192898  celldm(2)=   0.000000  celldm(3)=   0.000000
     celldm(4)=   0.000000  celldm(5)=   0.000000  celldm(6)=   0.000000

     crystal axes: (cart. coord. in units of alat)
               a(1) = (   1.000000   0.000000   0.000000 )  
               a(2) = (   0.622147   0.782900   0.000000 )  
               a(3) = (   0.622147   0.300268   0.723030 )  

     reciprocal axes: (cart. coord. in units 2 pi/alat)
               b(1) = (  1.000000 -0.794669 -0.530452 )  
               b(2) = (  0.000000  1.277302 -0.530452 )  
               b(3) = (  0.000000  0.000000  1.383069 )  


     PseudoPot. # 1 for Mg read from file:
     /home/pragov/projects/rrg-bengioy-ad/pragov/crystal_structure_design/SSSP/Mg.pbe-n-kjpaw_psl.0.3.0.UPF
     MD5 check sum: 24ecedc7f3e3cbe212e682f4413594e4
     Pseudo is Projector augmented-wave + core cor, Zval =  2.0
     Generated using "atomic" code by A. Dal Corso  v.5.0.99 svn rev. 10869
     Shape of augmentation charge: PSQ
     Using radial grid of 1129 points,  4 beta functions with: 
                l(1) =   0
                l(2) =   0
                l(3) =   1
                l(4) =   1
     Q(r) pseudized with 0 coefficients 


     PseudoPot. # 2 for Hg read from file:
     /home/pragov/projects/rrg-bengioy-ad/pragov/crystal_structure_design/SSSP/Hg_ONCV_PBE-1.0.oncvpsp.upf
     MD5 check sum: dd5a8773074bfcf4280086d4d95875c4
     Pseudo is Norm-conserving, Zval = 20.0
     Generated using ONCVPSP code by D. R. Hamann
     Using radial grid of 1262 points,  8 beta functions with: 
                l(1) =   0
                l(2) =   0
                l(3) =   1
                l(4) =   1
                l(5) =   2
                l(6) =   2
                l(7) =   3
                l(8) =   3

     atomic species   valence    mass     pseudopotential
        Mg             2.00    24.30500     Mg( 1.00)
        Hg            20.00   200.59200     Hg( 1.00)

     No symmetry found


                                    s                        frac. trans.

      isym =  1     identity                                     

 cryst.   s( 1) = (     1          0          0      )
                  (     0          1          0      )
                  (     0          0          1      )

 cart.    s( 1) = (  1.0000000 -0.0000000  0.0000000 )
                  (  0.0000000  1.0000000  0.0000000 )
                  (  0.0000000  0.0000000  1.0000000 )


   Cartesian axes

     site n.     atom                  positions (alat units)
         1           Mg  tau(   1) = (   0.0000000   0.0000000   0.0000000  )
         2           Hg  tau(   2) = (   0.9928267   0.8095320   0.3615149  )
         3           Hg  tau(   3) = (   1.1221469   0.3764034   0.6089719  )
         4           Hg  tau(   4) = (   1.2514672   0.4388175   0.1140580  )
         5           Hg  tau(   5) = (   1.4855206   0.7169601   0.4785807  )
         6           Hg  tau(   6) = (   0.7587733   0.3662085   0.2444492  )

   Crystallographic axes

     site n.     atom                  positions (cryst. coord.)
         1           Mg  tau(   1) = (  0.0000000  0.0000000  0.0000000  )
         2           Hg  tau(   2) = (  0.1577500  0.8422500  0.5000000  )
         3           Hg  tau(   3) = (  0.5000000  0.1577500  0.8422500  )
         4           Hg  tau(   4) = (  0.8422500  0.5000000  0.1577500  )
         5           Hg  tau(   5) = (  0.6619100  0.6619100  0.6619100  )
         6           Hg  tau(   6) = (  0.3380900  0.3380900  0.3380900  )

     number of k points=     1  Methfessel-Paxton smearing, width (Ry)=  0.0010
                       cart. coord. in units 2pi/alat
        k(    1) = (   0.0000000   0.0000000   0.0000000), wk =   2.0000000

                       cryst. coord.
        k(    1) = (   0.0000000   0.0000000   0.0000000), wk =   2.0000000

     Dense  grid:    32193 G-vectors     FFT dimensions: (  64,  64,  64)

     Smooth grid:    11431 G-vectors     FFT dimensions: (  45,  45,  45)

     Dynamical RAM for                 wfc:       1.33 MB

     Dynamical RAM for     wfc (w. buffer):       1.33 MB

     Dynamical RAM for           str. fact:       0.98 MB

     Dynamical RAM for           local pot:       0.00 MB

     Dynamical RAM for          nlocal pot:       3.65 MB

     Dynamical RAM for                qrad:       5.97 MB

     Dynamical RAM for          rho,v,vnew:       7.47 MB

     Dynamical RAM for               rhoin:       2.49 MB

     Dynamical RAM for            rho*nmix:       7.86 MB

     Dynamical RAM for           G-vectors:       1.93 MB

     Dynamical RAM for          h,s,v(r/c):       0.34 MB

     Dynamical RAM for          <psi|beta>:       0.08 MB

     Dynamical RAM for                 psi:       2.65 MB

     Dynamical RAM for                hpsi:       2.65 MB

     Dynamical RAM for                spsi:       2.65 MB

     Dynamical RAM for      wfcinit/wfcrot:       2.74 MB

     Dynamical RAM for           addusdens:      31.44 MB

     Dynamical RAM for          addusforce:      31.68 MB

     Dynamical RAM for         addusstress:      44.21 MB

     Estimated static dynamical RAM per process >      35.30 MB

     Estimated max dynamical RAM per process >      87.37 MB

     Initial potential from superposition of free atoms

     starting charge     101.9987, renormalised to     102.0000
     Starting wfcs are   54 randomized atomic wfcs +    7 random wfcs
     Checking if some PAW data can be deallocated... 

     total cpu time spent up to now is        3.1 secs

     Self-consistent Calculation

     iteration #  1     ecut=    30.00 Ry     beta= 0.70
     Davidson diagonalization with overlap

---- Real-time Memory Report at c_bands before calling an iterative solver
           496 MiB given to the printing process from OS
             0 MiB allocation reported by mallinfo(arena+hblkhd)
         78219 MiB available memory on the node where the printing process lives
------------------
     ethr =  1.00E-02,  avg # of iterations =  7.0

     Threshold (ethr) on eigenvalues was too large:
     Diagonalizing with lowered threshold

     Davidson diagonalization with overlap

---- Real-time Memory Report at c_bands before calling an iterative solver
           669 MiB given to the printing process from OS
             0 MiB allocation reported by mallinfo(arena+hblkhd)
         78074 MiB available memory on the node where the printing process lives
------------------
     ethr =  2.11E-04,  avg # of iterations =  8.0

     total cpu time spent up to now is        4.3 secs

     total energy              =   -1582.53517020 Ry
     estimated scf accuracy    <       0.23838066 Ry

     iteration #  2     ecut=    30.00 Ry     beta= 0.70
     Davidson diagonalization with overlap

---- Real-time Memory Report at c_bands before calling an iterative solver
           682 MiB given to the printing process from OS
             0 MiB allocation reported by mallinfo(arena+hblkhd)
         78061 MiB available memory on the node where the printing process lives
------------------
     ethr =  2.34E-04,  avg # of iterations =  2.0

     total cpu time spent up to now is        5.0 secs

     total energy              =   -1582.58808545 Ry
     estimated scf accuracy    <       0.05160222 Ry

     iteration #  3     ecut=    30.00 Ry     beta= 0.70
     Davidson diagonalization with overlap

---- Real-time Memory Report at c_bands before calling an iterative solver
           700 MiB given to the printing process from OS
             0 MiB allocation reported by mallinfo(arena+hblkhd)
         78042 MiB available memory on the node where the printing process lives
------------------
     ethr =  5.06E-05,  avg # of iterations =  2.0

     total cpu time spent up to now is        5.6 secs

     total energy              =   -1582.60056068 Ry
     estimated scf accuracy    <       0.00549111 Ry

     iteration #  4     ecut=    30.00 Ry     beta= 0.70
     Davidson diagonalization with overlap

---- Real-time Memory Report at c_bands before calling an iterative solver
           700 MiB given to the printing process from OS
             0 MiB allocation reported by mallinfo(arena+hblkhd)
         78043 MiB available memory on the node where the printing process lives
------------------
     ethr =  5.38E-06,  avg # of iterations =  6.0

     total cpu time spent up to now is        6.3 secs

     total energy              =   -1582.60180499 Ry
     estimated scf accuracy    <       0.00122774 Ry

     iteration #  5     ecut=    30.00 Ry     beta= 0.70
     Davidson diagonalization with overlap

---- Real-time Memory Report at c_bands before calling an iterative solver
           700 MiB given to the printing process from OS
             0 MiB allocation reported by mallinfo(arena+hblkhd)
         78043 MiB available memory on the node where the printing process lives
------------------
     ethr =  1.20E-06,  avg # of iterations =  6.0

     total cpu time spent up to now is        6.9 secs

     total energy              =   -1582.60223678 Ry
     estimated scf accuracy    <       0.00023997 Ry

     iteration #  6     ecut=    30.00 Ry     beta= 0.70
     Davidson diagonalization with overlap

---- Real-time Memory Report at c_bands before calling an iterative solver
           702 MiB given to the printing process from OS
             0 MiB allocation reported by mallinfo(arena+hblkhd)
         78044 MiB available memory on the node where the printing process lives
------------------
     ethr =  2.35E-07,  avg # of iterations =  2.0

     total cpu time spent up to now is        7.5 secs

     total energy              =   -1582.60228811 Ry
     estimated scf accuracy    <       0.00001076 Ry

     iteration #  7     ecut=    30.00 Ry     beta= 0.70
     Davidson diagonalization with overlap

---- Real-time Memory Report at c_bands before calling an iterative solver
           702 MiB given to the printing process from OS
             0 MiB allocation reported by mallinfo(arena+hblkhd)
         78044 MiB available memory on the node where the printing process lives
------------------
     ethr =  1.06E-08,  avg # of iterations =  2.0

     total cpu time spent up to now is        8.1 secs

     total energy              =   -1582.60229135 Ry
     estimated scf accuracy    <       0.00000109 Ry

     iteration #  8     ecut=    30.00 Ry     beta= 0.70
     Davidson diagonalization with overlap

---- Real-time Memory Report at c_bands before calling an iterative solver
           702 MiB given to the printing process from OS
             0 MiB allocation reported by mallinfo(arena+hblkhd)
         78044 MiB available memory on the node where the printing process lives
------------------
     ethr =  1.07E-09,  avg # of iterations =  7.0

     total cpu time spent up to now is        8.8 secs

     End of self-consistent calculation

          k = 0.0000 0.0000 0.0000 (  1429 PWs)   bands (ev):

  -103.8807-103.8801-103.7402-103.7395-103.7393 -51.8417 -51.8417 -51.8372
   -51.8371 -51.6876 -51.6769 -51.6769 -51.6676 -51.6676 -51.6657 -51.5799
   -51.5721 -51.4681 -51.4679 -51.4584   3.6059   4.5193   5.0296   5.0296
     5.0945   5.0945   5.1169   5.1395   5.1408   5.1408   5.3114   5.3114
     5.3829   5.3829   5.4704   5.5094   5.5723   5.5723   5.5797   5.8240
     5.8241   6.0942   6.0942   6.2499   6.3142   6.3142   9.5478  10.2172
    11.1535  11.1535  11.3246  12.5964  13.2966  13.2967  13.4708  13.4708
    13.9377  14.7918  15.3412  15.3412  20.4712

     occupation numbers 
     1.0000   1.0000   1.0000   1.0000   1.0000   1.0000   1.0000   1.0000
     1.0000   1.0000   1.0000   1.0000   1.0000   1.0000   1.0000   1.0000
     1.0000   1.0000   1.0000   1.0000   1.0000   1.0000   1.0000   1.0000
     1.0000   1.0000   1.0000   1.0000   1.0000   1.0000   1.0000   1.0000
     1.0000   1.0000   1.0000   1.0000   1.0000   1.0000   1.0000   1.0000
     1.0000   1.0000   1.0000   1.0000   1.0000   1.0000   1.0000   1.0000
     1.0000   1.0000   1.0000  -0.0000  -0.0000  -0.0000  -0.0000  -0.0000
    -0.0000  -0.0000  -0.0000  -0.0000  -0.0000

     the Fermi energy is    11.8446 ev

!    total energy              =   -1582.60229166 Ry
     estimated scf accuracy    <       0.00000010 Ry
     smearing contrib. (-TS)   =       0.00000000 Ry
     internal energy E=F+TS    =   -1582.60229166 Ry

     The total energy is F=E-TS. E is the sum of the following terms:
     one-electron contribution =    -910.83660125 Ry
     hartree contribution      =     464.63236158 Ry
     xc contribution           =    -138.60059415 Ry
     ewald contribution        =    -966.56537164 Ry
     one-center paw contrib.   =     -31.23208621 Ry
      -> PAW hartree energy AE =       0.21926077 Ry
      -> PAW hartree energy PS =      -0.21868163 Ry
      -> PAW xc energy AE      =     -32.19058296 Ry
      -> PAW xc energy PS      =       0.95791761 Ry
      -> total E_H with PAW    =     464.63294073 Ry
      -> total E_XC with PAW   =    -169.83325950 Ry

     convergence has been achieved in   8 iterations

     Forces acting on atoms (cartesian axes, Ry/au):

     atom    1 type  1   force =     0.00000832   -0.00000952   -0.00000851
     atom    2 type  2   force =    -0.01240424    0.02604450    0.00005400
     atom    3 type  2   force =     0.00009809   -0.01599578    0.02401673
     atom    4 type  2   force =     0.01261987   -0.00986648   -0.02395768
     atom    5 type  2   force =     0.03080418    0.01490704    0.00990713
     atom    6 type  2   force =    -0.03112621   -0.01507975   -0.01001166
     The non-local contrib.  to forces
     atom    1 type  1   force =    -0.00001030   -0.00000452   -0.00000350
     atom    2 type  2   force =     0.03373811   -0.06981169    0.00003783
     atom    3 type  2   force =    -0.00000074    0.04304102   -0.06449981
     atom    4 type  2   force =    -0.03368333    0.02681565    0.06448923
     atom    5 type  2   force =    -0.12639817   -0.06098860   -0.04072896
     atom    6 type  2   force =     0.12636567    0.06097570    0.04071692
     The ionic contribution  to forces
     atom    1 type  1   force =     0.00000002   -0.00000005    0.00000000
     atom    2 type  2   force =    -1.13529599    2.35230026   -0.00000000
     atom    3 type  2   force =     0.00000183   -1.45011384    2.17241206
     atom    4 type  2   force =     1.13529365   -0.90218538   -2.17241206
     atom    5 type  2   force =     1.27460581    0.61516527    0.41063527
     atom    6 type  2   force =    -1.27460533   -0.61516626   -0.41063527
     The local contribution  to forces
     atom    1 type  1   force =     0.00006457    0.00003544    0.00002579
     atom    2 type  2   force =     1.08831739   -2.25801192   -0.00031476
     atom    3 type  2   force =    -0.00114878    1.39124976   -2.08511209
     atom    4 type  2   force =    -1.09050955    0.86513659    2.08442994
     atom    5 type  2   force =    -1.11635028   -0.53914972   -0.35968874
     atom    6 type  2   force =     1.11863267    0.54004169    0.36015168
     The core correction contribution to forces
     atom    1 type  1   force =     0.00000171    0.00000078    0.00000059
     atom    2 type  2   force =     0.00000000    0.00000000    0.00000000
     atom    3 type  2   force =     0.00000000    0.00000000    0.00000000
     atom    4 type  2   force =     0.00000000    0.00000000    0.00000000
     atom    5 type  2   force =     0.00000000    0.00000000    0.00000000
     atom    6 type  2   force =     0.00000000    0.00000000    0.00000000
     The Hubbard contrib.    to forces
     atom    1 type  1   force =     0.00000000    0.00000000    0.00000000
     atom    2 type  2   force =     0.00000000    0.00000000    0.00000000
     atom    3 type  2   force =     0.00000000    0.00000000    0.00000000
     atom    4 type  2   force =     0.00000000    0.00000000    0.00000000
     atom    5 type  2   force =     0.00000000    0.00000000    0.00000000
     atom    6 type  2   force =     0.00000000    0.00000000    0.00000000
     The SCF correction term to forces
     atom    1 type  1   force =    -0.00004717   -0.00002592   -0.00001883
     atom    2 type  2   force =     0.00083675    0.00158310    0.00034349
     atom    3 type  2   force =     0.00124629   -0.00015747    0.00122913
     atom    4 type  2   force =     0.00151961    0.00038191   -0.00045223
     atom    5 type  2   force =    -0.00105268   -0.00010466   -0.00029788
     atom    6 type  2   force =    -0.00151872   -0.00091562   -0.00023244

     Total force =     0.071142     Total SCF correction =     0.003672


     Computing stress (Cartesian axis) and pressure

          total   stress  (Ry/bohr**3)                   (kbar)     P=     -754.11
  -0.00526305  -0.00011903  -0.00007942         -774.22      -17.51      -11.68
  -0.00011903  -0.00507387  -0.00003837          -17.51     -746.39       -5.64
  -0.00007942  -0.00003837  -0.00504203          -11.68       -5.64     -741.71

     kinetic stress (kbar)  44981.86    179.95    120.12
                              179.95  44695.86     57.98
                              120.12     57.98  44647.71

     local   stress (kbar) -18419.79   2896.25   1933.30
                             2896.25 -23022.87    933.03
                             1933.30    933.03 -23797.90

     nonloc. stress (kbar)   6475.21     19.86     13.25
                               19.86   6443.65      6.40
                               13.25      6.40   6438.34

     hartree stress (kbar)  20810.62  -1213.01   -809.70
                            -1213.01  22738.46   -390.76
                             -809.70   -390.76  23063.08

     exc-cor stress (kbar)  -6147.16      1.52      1.02
                                1.52  -6149.58      0.49
                                1.02      0.49  -6149.98

     corecor stress (kbar)    -99.65     -0.30     -0.20
                               -0.30    -99.16     -0.10
                               -0.20     -0.10    -99.08

     ewald   stress (kbar) -48375.32  -1901.78  -1269.46
                            -1901.78 -45352.75   -612.68
                            -1269.46   -612.68 -44843.87

     hubbard stress (kbar)      0.00      0.00      0.00
                                0.00      0.00      0.00
                                0.00      0.00      0.00

     DFT-D   stress (kbar)      0.00      0.00      0.00
                                0.00      0.00      0.00
                                0.00      0.00      0.00

     XDM     stress (kbar)      0.00      0.00      0.00
                                0.00      0.00      0.00
                                0.00      0.00      0.00

     dft-nl  stress (kbar)      0.00      0.00      0.00
                                0.00      0.00      0.00
                                0.00      0.00      0.00

     TS-vdW  stress (kbar)      0.00      0.00      0.00
                                0.00      0.00      0.00
                                0.00      0.00      0.00


                                0.00      0.00      0.00
                                0.00      0.00      0.00


                                0.00      0.00      0.00


     Writing all to output data dir new_calculations/myprefix.save/
 
     init_run     :     73.69s CPU      2.99s WALL (       1 calls)
     electrons    :    179.22s CPU      5.77s WALL (       1 calls)
     forces       :      2.01s CPU      0.07s WALL (       1 calls)
     stress       :      5.82s CPU      0.20s WALL (       1 calls)

     Called by init_run:
     wfcinit      :     19.54s CPU      0.63s WALL (       1 calls)
     wfcinit:atom :      0.01s CPU      0.00s WALL (       1 calls)
     wfcinit:wfcr :     19.44s CPU      0.62s WALL (       1 calls)
     potinit      :     15.91s CPU      0.53s WALL (       1 calls)
     hinit0       :     35.46s CPU      1.71s WALL (       1 calls)

     Called by electrons:
     c_bands      :    136.44s CPU      4.33s WALL (       9 calls)
     sum_band     :     27.02s CPU      0.89s WALL (       9 calls)
     v_of_rho     :      7.47s CPU      0.25s WALL (       9 calls)
     v_h          :      0.56s CPU      0.02s WALL (       9 calls)
     v_xc         :      8.10s CPU      0.27s WALL (      11 calls)
     newd         :      2.50s CPU      0.12s WALL (       9 calls)
     PAW_pot      :      3.18s CPU      0.11s WALL (       9 calls)
     mix_rho      :      1.10s CPU      0.04s WALL (       9 calls)

     Called by c_bands:
     init_us_2    :      0.26s CPU      0.01s WALL (      19 calls)
     init_us_2:cp :      0.23s CPU      0.01s WALL (      19 calls)
     regterg      :    134.46s CPU      4.26s WALL (       9 calls)

     Called by sum_band:
     sum_band:wei :      0.01s CPU      0.00s WALL (       9 calls)
     sum_band:loo :     22.72s CPU      0.72s WALL (       9 calls)
     sum_band:buf :      0.01s CPU      0.00s WALL (       9 calls)
     sum_band:ini :      0.12s CPU      0.00s WALL (       9 calls)
     sum_band:cal :      0.12s CPU      0.00s WALL (       9 calls)
     sum_band:bec :      0.01s CPU      0.00s WALL (       9 calls)
     addusdens    :      3.25s CPU      0.14s WALL (       9 calls)
     addusd:skk   :      0.02s CPU      0.00s WALL (       9 calls)
     addusd:dgemm :      1.42s CPU      0.05s WALL (       9 calls)
     addusd:qvan2 :      1.23s CPU      0.04s WALL (       9 calls)

     Called by *egterg:
     rdiaghg      :      5.90s CPU      0.20s WALL (      50 calls)
     regterg:over :      0.22s CPU      0.01s WALL (      42 calls)
     regterg:upda :      0.33s CPU      0.01s WALL (      42 calls)
     regterg:last :      0.69s CPU      0.02s WALL (      18 calls)
     h_psi        :    145.12s CPU      4.59s WALL (      52 calls)
     s_psi        :      0.10s CPU      0.00s WALL (      52 calls)
     g_psi        :      0.04s CPU      0.00s WALL (      42 calls)

     Called by h_psi:
     h_psi:calbec :      0.36s CPU      0.01s WALL (      52 calls)
     vloc_psi     :    144.25s CPU      4.56s WALL (      52 calls)
     add_vuspsi   :      0.22s CPU      0.01s WALL (      52 calls)

     General routines
     calbec       :      0.43s CPU      0.02s WALL (      66 calls)
     fft          :     24.67s CPU      1.00s WALL (     118 calls)
     ffts         :     13.69s CPU      0.45s WALL (      18 calls)
     fftw         :    150.33s CPU      4.74s WALL (    1769 calls)
     interpolate  :     14.19s CPU      0.46s WALL (       9 calls)
 
     Parallel routines

     PAW routines
     PAW_pot      :      3.18s CPU      0.11s WALL (       9 calls)
 
     PWSCF        :   4m26.16s CPU      9.31s WALL

 
   This run was terminated on:   4:21:22  21May2023            

=------------------------------------------------------------------------------=
   JOB DONE.
=------------------------------------------------------------------------------=
