
     Program PWSCF v.7.0 starts on 20May2023 at  9:27:34 

     This program is part of the open-source Quantum ESPRESSO suite
     for quantum simulation of materials; please cite
         "P. Giannozzi et al., J. Phys.:Condens. Matter 21 395502 (2009);
         "P. Giannozzi et al., J. Phys.:Condens. Matter 29 465901 (2017);
         "P. Giannozzi et al., J. Chem. Phys. 152 154105 (2020);
          URL http://www.quantum-espresso.org", 
     in publications or presentations arising from this work. More details at
     http://www.quantum-espresso.org/quote

     Parallel version (MPI & OpenMP), running on      32 processor cores
     Number of MPI processes:                 1
     Threads/MPI process:                    32

     MPI processes distributed on     1 nodes
     129744 MiB available memory on the printing compute node when the environment starts
 
     Reading input from espresso_19207.pwi
Warning: card &CELL ignored
Warning: card / ignored

     Current dimensions of program PWSCF are:
     Max number of different atomic species (ntypx) = 10
     Max number of k-points (npk) =  40000
     Max angular momentum in pseudopotentials (lmaxx) =  4

     gamma-point specific algorithms are used
     Message from routine setup:
     using ibrav=0 with symmetry is DISCOURAGED, use correct ibrav instead

     Subspace diagonalization in iterative solution of the eigenvalue problem:
     a serial algorithm will be used

 
     G-vector sticks info
     --------------------
     sticks:   dense  smooth     PW     G-vecs:    dense   smooth      PW
     Sum        2753    1379    343               167851    59403    7407
 
     Using Slab Decomposition
 


     bravais-lattice index     =            0
     lattice parameter (alat)  =      16.9348  a.u.
     unit-cell volume          =    2672.0873 (a.u.)^3
     number of atoms/cell      =           16
     number of atomic types    =            3
     number of electrons       =       224.00
     number of Kohn-Sham states=          134
     kinetic-energy cutoff     =      30.0000  Ry
     charge density cutoff     =     240.0000  Ry
     scf convergence threshold =      1.0E-06
     mixing beta               =       0.7000
     number of iterations used =            8  plain     mixing
     Exchange-correlation= PBE
                           (   1   4   3   4   0   0   0)

     celldm(1)=  16.934767  celldm(2)=   0.000000  celldm(3)=   0.000000
     celldm(4)=   0.000000  celldm(5)=   0.000000  celldm(6)=   0.000000

     crystal axes: (cart. coord. in units of alat)
               a(1) = (   1.000000   0.000000   0.000000 )  
               a(2) = (  -0.863385   0.504546   0.000000 )  
               a(3) = (   0.000000   0.000000   1.090465 )  

     reciprocal axes: (cart. coord. in units 2 pi/alat)
               b(1) = (  1.000000  1.711209  0.000000 )  
               b(2) = (  0.000000  1.981978  0.000000 )  
               b(3) = (  0.000000  0.000000  0.917040 )  


     PseudoPot. # 1 for La read from file:
     /home/pragov/projects/rrg-bengioy-ad/pragov/crystal_structure_design/SSSP/La.GGA-PBE-paw-v1.0.UPF
     MD5 check sum: 436541e95c1ad8901025bd0b0ed42ae2
     Pseudo is Projector augmented-wave + core cor, Zval = 11.0
     Generated using ATOMPAW code
     Shape of augmentation charge: BESSEL
     Using radial grid of 1101 points,  8 beta functions with: 
                l(1) =   0
                l(2) =   0
                l(3) =   1
                l(4) =   1
                l(5) =   2
                l(6) =   2
                l(7) =   3
                l(8) =   3
     Q(r) pseudized with 0 coefficients 


     PseudoPot. # 2 for Sn read from file:
     /home/pragov/projects/rrg-bengioy-ad/pragov/crystal_structure_design/SSSP/Sn_pbe_v1.uspp.F.UPF
     MD5 check sum: 4cf58ce39ec5d5d420df3dd08604eb00
     Pseudo is Ultrasoft + core correction, Zval = 14.0
     Generated by new atomic code, or converted to UPF format
     Using radial grid of  891 points,  6 beta functions with: 
                l(1) =   0
                l(2) =   0
                l(3) =   1
                l(4) =   1
                l(5) =   2
                l(6) =   2
     Q(r) pseudized with  6 coefficients,  rinner =    1.200   1.200   1.200
                                                       1.200   1.200

     PseudoPot. # 3 for Rh read from file:
     /home/pragov/projects/rrg-bengioy-ad/pragov/crystal_structure_design/SSSP/Rh_ONCV_PBE-1.0.oncvpsp.upf
     MD5 check sum: ba07c69523b14cacd10683cd4c4284c1
     Pseudo is Norm-conserving, Zval = 17.0
     Generated using ONCVPSP code by D. R. Hamann
     Using radial grid of 1442 points,  6 beta functions with: 
                l(1) =   0
                l(2) =   0
                l(3) =   1
                l(4) =   1
                l(5) =   2
                l(6) =   2

     atomic species   valence    mass     pseudopotential
        La            11.00   138.90547     La( 1.00)
        Sn            14.00   118.71000     Sn( 1.00)
        Rh            17.00   102.90550     Rh( 1.00)

      4 Sym. Ops., with inversion, found ( 2 have fractional translation)


                                    s                        frac. trans.

      isym =  1     identity                                     

 cryst.   s( 1) = (     1          0          0      )
                  (     0          1          0      )
                  (     0          0          1      )

 cart.    s( 1) = (  1.0000000 -0.0000000  0.0000000 )
                  (  0.0000000  1.0000000  0.0000000 )
                  (  0.0000000  0.0000000  1.0000000 )


      isym =  2     180 deg rotation - cart. axis [0,0,1]        

 cryst.   s( 2) = (    -1          0          0      )    f =( -0.0000000 )
                  (     0         -1          0      )       ( -0.0000000 )
                  (     0          0          1      )       (  0.5000000 )

 cart.    s( 2) = ( -1.0000000  0.0000000  0.0000000 )    f =( -0.0000000 )
                  (  0.0000000 -1.0000000  0.0000000 )       ( -0.0000000 )
                  (  0.0000000  0.0000000  1.0000000 )       (  0.5452326 )


      isym =  3     inversion                                    

 cryst.   s( 3) = (    -1          0          0      )
                  (     0         -1          0      )
                  (     0          0         -1      )

 cart.    s( 3) = ( -1.0000000  0.0000000  0.0000000 )
                  (  0.0000000 -1.0000000  0.0000000 )
                  (  0.0000000  0.0000000 -1.0000000 )


      isym =  4     inv. 180 deg rotation - cart. axis [0,0,1]   

 cryst.   s( 4) = (     1          0          0      )    f =(  0.0000000 )
                  (     0          1          0      )       (  0.0000000 )
                  (     0          0         -1      )       (  0.5000000 )

 cart.    s( 4) = (  1.0000000 -0.0000000  0.0000000 )    f =(  0.0000000 )
                  (  0.0000000  1.0000000  0.0000000 )       (  0.0000000 )
                  (  0.0000000  0.0000000 -1.0000000 )       (  0.5452326 )


   Cartesian axes

     site n.     atom                  positions (alat units)
         1           La  tau(   1) = (   0.0683077   0.2522732   0.5452326  )
         2           La  tau(   2) = (   0.0683077   0.2522732   0.0000000  )
         3           La  tau(   3) = (  -0.3117370   0.3551775   0.2726163  )
         4           La  tau(   4) = (   0.4483525   0.1493690   0.8178489  )
         5           Sn  tau(   5) = (   0.8294258   0.0461862   0.8178489  )
         6           Sn  tau(   6) = (   0.8629965   0.0370963   0.2726163  )
         7           Sn  tau(   7) = (  -0.6928103   0.4583603   0.2726163  )
         8           Sn  tau(   8) = (  -0.7263811   0.4674502   0.8178489  )
         9           Sn  tau(   9) = (   0.4371833   0.1523932   0.4473852  )
        10           Sn  tau(  10) = (  -0.3005679   0.3521532   0.6430800  )
        11           Sn  tau(  11) = (  -0.3005679   0.3521532   0.9926178  )
        12           Sn  tau(  12) = (   0.4371833   0.1523932   0.0978474  )
        13           Rh  tau(  13) = (  -0.5904807   0.4306526   0.5502084  )
        14           Rh  tau(  14) = (   0.7270962   0.0738939   0.0049758  )
        15           Rh  tau(  15) = (  -0.5904807   0.4306526   1.0854894  )
        16           Rh  tau(  16) = (   0.7270962   0.0738939   0.5402568  )

   Crystallographic axes

     site n.     atom                  positions (cryst. coord.)
         1           La  tau(   1) = (  0.5000000  0.5000000  0.5000000  )
         2           La  tau(   2) = (  0.5000000  0.5000000  0.0000000  )
         3           La  tau(   3) = (  0.2960460  0.7039540  0.2500000  )
         4           La  tau(   4) = (  0.7039540  0.2960460  0.7500000  )
         5           Sn  tau(   5) = (  0.9084600  0.0915400  0.7500000  )
         6           Sn  tau(   6) = (  0.9264760  0.0735240  0.2500000  )
         7           Sn  tau(   7) = (  0.0915400  0.9084600  0.2500000  )
         8           Sn  tau(   8) = (  0.0735240  0.9264760  0.7500000  )
         9           Sn  tau(   9) = (  0.6979600  0.3020400  0.4102700  )
        10           Sn  tau(  10) = (  0.3020400  0.6979600  0.5897300  )
        11           Sn  tau(  11) = (  0.3020400  0.6979600  0.9102700  )
        12           Sn  tau(  12) = (  0.6979600  0.3020400  0.0897300  )
        13           Rh  tau(  13) = (  0.1464560  0.8535440  0.5045630  )
        14           Rh  tau(  14) = (  0.8535440  0.1464560  0.0045630  )
        15           Rh  tau(  15) = (  0.1464560  0.8535440  0.9954370  )
        16           Rh  tau(  16) = (  0.8535440  0.1464560  0.4954370  )

     number of k points=     1  Methfessel-Paxton smearing, width (Ry)=  0.0010
                       cart. coord. in units 2pi/alat
        k(    1) = (   0.0000000   0.0000000   0.0000000), wk =   2.0000000

                       cryst. coord.
        k(    1) = (   0.0000000   0.0000000   0.0000000), wk =   2.0000000

     Dense  grid:    83926 G-vectors     FFT dimensions: (  90,  90,  96)

     Smooth grid:    29702 G-vectors     FFT dimensions: (  60,  60,  72)

     Dynamical RAM for                 wfc:       7.58 MB

     Dynamical RAM for     wfc (w. buffer):       7.58 MB

     Dynamical RAM for           str. fact:       3.84 MB

     Dynamical RAM for           local pot:       0.00 MB

     Dynamical RAM for          nlocal pot:      19.46 MB

     Dynamical RAM for                qrad:       8.96 MB

     Dynamical RAM for          rho,v,vnew:      21.64 MB

     Dynamical RAM for               rhoin:       7.21 MB

     Dynamical RAM for            rho*nmix:      20.49 MB

     Dynamical RAM for           G-vectors:       5.03 MB

     Dynamical RAM for          h,s,v(r/c):       1.64 MB

     Dynamical RAM for          <psi|beta>:       0.35 MB

     Dynamical RAM for                 psi:      15.16 MB

     Dynamical RAM for                hpsi:      15.16 MB

     Dynamical RAM for                spsi:      15.16 MB

     Dynamical RAM for      wfcinit/wfcrot:      28.47 MB

     Dynamical RAM for           addusdens:     720.98 MB

     Dynamical RAM for          addusforce:     739.65 MB

     Dynamical RAM for         addusstress:     745.31 MB

     Estimated static dynamical RAM per process >     108.50 MB

     Estimated max dynamical RAM per process >     874.31 MB

     Initial potential from superposition of free atoms

     starting charge     215.9638, renormalised to     224.0000
     Starting wfcs are  240 randomized atomic wfcs
     Checking if some PAW data can be deallocated... 

     total cpu time spent up to now is       30.9 secs

     Self-consistent Calculation

     iteration #  1     ecut=    30.00 Ry     beta= 0.70
     Davidson diagonalization with overlap

---- Real-time Memory Report at c_bands before calling an iterative solver
          1074 MiB given to the printing process from OS
             0 MiB allocation reported by mallinfo(arena+hblkhd)
        129406 MiB available memory on the node where the printing process lives
------------------
     ethr =  1.00E-02,  avg # of iterations =  2.0

     total cpu time spent up to now is       37.2 secs

     total energy              =   -4004.40784696 Ry
     estimated scf accuracy    <       5.24766829 Ry

     iteration #  2     ecut=    30.00 Ry     beta= 0.70
     Davidson diagonalization with overlap

---- Real-time Memory Report at c_bands before calling an iterative solver
          1318 MiB given to the printing process from OS
             0 MiB allocation reported by mallinfo(arena+hblkhd)
        129310 MiB available memory on the node where the printing process lives
------------------
     ethr =  2.34E-03,  avg # of iterations =  7.0

     total cpu time spent up to now is       42.0 secs

     total energy              =   -4004.44813968 Ry
     estimated scf accuracy    <      15.08591926 Ry

     iteration #  3     ecut=    30.00 Ry     beta= 0.70
     Davidson diagonalization with overlap

---- Real-time Memory Report at c_bands before calling an iterative solver
          1366 MiB given to the printing process from OS
             0 MiB allocation reported by mallinfo(arena+hblkhd)
        129302 MiB available memory on the node where the printing process lives
------------------
     ethr =  2.34E-03,  avg # of iterations =  6.0

     total cpu time spent up to now is       45.9 secs

     total energy              =   -4006.46524591 Ry
     estimated scf accuracy    <       2.42540163 Ry

     iteration #  4     ecut=    30.00 Ry     beta= 0.70
     Davidson diagonalization with overlap

---- Real-time Memory Report at c_bands before calling an iterative solver
          1367 MiB given to the printing process from OS
             0 MiB allocation reported by mallinfo(arena+hblkhd)
        129304 MiB available memory on the node where the printing process lives
------------------
     ethr =  1.08E-03,  avg # of iterations =  7.0

     total cpu time spent up to now is       51.6 secs

     total energy              =   -4006.72229854 Ry
     estimated scf accuracy    <       2.78486112 Ry

     iteration #  5     ecut=    30.00 Ry     beta= 0.70
     Davidson diagonalization with overlap

---- Real-time Memory Report at c_bands before calling an iterative solver
          1367 MiB given to the printing process from OS
             0 MiB allocation reported by mallinfo(arena+hblkhd)
        129320 MiB available memory on the node where the printing process lives
------------------
     ethr =  1.08E-03,  avg # of iterations =  2.0

     negative rho (up, down):  8.455E-07 0.000E+00

     total cpu time spent up to now is       61.9 secs

     total energy              =   -4007.01864692 Ry
     estimated scf accuracy    <       0.14568185 Ry

     iteration #  6     ecut=    30.00 Ry     beta= 0.70
     Davidson diagonalization with overlap

---- Real-time Memory Report at c_bands before calling an iterative solver
          1370 MiB given to the printing process from OS
             0 MiB allocation reported by mallinfo(arena+hblkhd)
        129306 MiB available memory on the node where the printing process lives
------------------
     ethr =  6.50E-05,  avg # of iterations = 18.0

     negative rho (up, down):  1.270E-07 0.000E+00

     total cpu time spent up to now is       68.0 secs

     total energy              =   -4007.04465010 Ry
     estimated scf accuracy    <       0.31828567 Ry

     iteration #  7     ecut=    30.00 Ry     beta= 0.70
     Davidson diagonalization with overlap

---- Real-time Memory Report at c_bands before calling an iterative solver
          1370 MiB given to the printing process from OS
             0 MiB allocation reported by mallinfo(arena+hblkhd)
        129304 MiB available memory on the node where the printing process lives
------------------
     ethr =  6.50E-05,  avg # of iterations =  4.0

     total cpu time spent up to now is       73.2 secs

     total energy              =   -4007.05959990 Ry
     estimated scf accuracy    <       0.07376766 Ry

     iteration #  8     ecut=    30.00 Ry     beta= 0.70
     Davidson diagonalization with overlap

---- Real-time Memory Report at c_bands before calling an iterative solver
          1370 MiB given to the printing process from OS
             0 MiB allocation reported by mallinfo(arena+hblkhd)
        129311 MiB available memory on the node where the printing process lives
------------------
     ethr =  3.29E-05,  avg # of iterations = 12.0

     total cpu time spent up to now is       77.8 secs

     total energy              =   -4007.06112351 Ry
     estimated scf accuracy    <       0.03519091 Ry

     iteration #  9     ecut=    30.00 Ry     beta= 0.70
     Davidson diagonalization with overlap

---- Real-time Memory Report at c_bands before calling an iterative solver
          1371 MiB given to the printing process from OS
             0 MiB allocation reported by mallinfo(arena+hblkhd)
        129351 MiB available memory on the node where the printing process lives
------------------
     ethr =  1.57E-05,  avg # of iterations =  8.0

     total cpu time spent up to now is       83.9 secs

     total energy              =   -4007.06242138 Ry
     estimated scf accuracy    <       0.02042788 Ry

     iteration # 10     ecut=    30.00 Ry     beta= 0.70
     Davidson diagonalization with overlap

---- Real-time Memory Report at c_bands before calling an iterative solver
          1373 MiB given to the printing process from OS
             0 MiB allocation reported by mallinfo(arena+hblkhd)
        129319 MiB available memory on the node where the printing process lives
------------------
     ethr =  9.12E-06,  avg # of iterations = 12.0

     total cpu time spent up to now is       88.7 secs

     total energy              =   -4007.06416703 Ry
     estimated scf accuracy    <       0.00759359 Ry

     iteration # 11     ecut=    30.00 Ry     beta= 0.70
     Davidson diagonalization with overlap

---- Real-time Memory Report at c_bands before calling an iterative solver
          1373 MiB given to the printing process from OS
             0 MiB allocation reported by mallinfo(arena+hblkhd)
        129286 MiB available memory on the node where the printing process lives
------------------
     ethr =  3.39E-06,  avg # of iterations = 20.0

     total cpu time spent up to now is       93.7 secs

     total energy              =   -4007.06485923 Ry
     estimated scf accuracy    <       0.00464726 Ry

     iteration # 12     ecut=    30.00 Ry     beta= 0.70
     Davidson diagonalization with overlap

---- Real-time Memory Report at c_bands before calling an iterative solver
          1373 MiB given to the printing process from OS
             0 MiB allocation reported by mallinfo(arena+hblkhd)
        129289 MiB available memory on the node where the printing process lives
------------------
     ethr =  2.07E-06,  avg # of iterations =  2.0

     total cpu time spent up to now is       97.9 secs

     total energy              =   -4007.06511271 Ry
     estimated scf accuracy    <       0.00086044 Ry

     iteration # 13     ecut=    30.00 Ry     beta= 0.70
     Davidson diagonalization with overlap

---- Real-time Memory Report at c_bands before calling an iterative solver
          1373 MiB given to the printing process from OS
             0 MiB allocation reported by mallinfo(arena+hblkhd)
        129290 MiB available memory on the node where the printing process lives
------------------
     ethr =  3.84E-07,  avg # of iterations =  9.0

     total cpu time spent up to now is      102.6 secs

     total energy              =   -4007.06519820 Ry
     estimated scf accuracy    <       0.00017923 Ry

     iteration # 14     ecut=    30.00 Ry     beta= 0.70
     Davidson diagonalization with overlap

---- Real-time Memory Report at c_bands before calling an iterative solver
          1373 MiB given to the printing process from OS
             0 MiB allocation reported by mallinfo(arena+hblkhd)
        129312 MiB available memory on the node where the printing process lives
------------------
     ethr =  8.00E-08,  avg # of iterations =  6.0

     total cpu time spent up to now is      108.1 secs

     total energy              =   -4007.06520409 Ry
     estimated scf accuracy    <       0.00018807 Ry

     iteration # 15     ecut=    30.00 Ry     beta= 0.70
     Davidson diagonalization with overlap

---- Real-time Memory Report at c_bands before calling an iterative solver
          1373 MiB given to the printing process from OS
             0 MiB allocation reported by mallinfo(arena+hblkhd)
        129312 MiB available memory on the node where the printing process lives
------------------
     ethr =  8.00E-08,  avg # of iterations =  5.0

     total cpu time spent up to now is      114.5 secs

     total energy              =   -4007.06522124 Ry
     estimated scf accuracy    <       0.00014609 Ry

     iteration # 16     ecut=    30.00 Ry     beta= 0.70
     Davidson diagonalization with overlap

---- Real-time Memory Report at c_bands before calling an iterative solver
          1373 MiB given to the printing process from OS
             0 MiB allocation reported by mallinfo(arena+hblkhd)
        129288 MiB available memory on the node where the printing process lives
------------------
     ethr =  6.52E-08,  avg # of iterations =  2.0

     total cpu time spent up to now is      118.7 secs

     total energy              =   -4007.06523725 Ry
     estimated scf accuracy    <       0.00000946 Ry

     iteration # 17     ecut=    30.00 Ry     beta= 0.70
     Davidson diagonalization with overlap

---- Real-time Memory Report at c_bands before calling an iterative solver
          1373 MiB given to the printing process from OS
             0 MiB allocation reported by mallinfo(arena+hblkhd)
        129290 MiB available memory on the node where the printing process lives
------------------
     ethr =  4.22E-09,  avg # of iterations =  6.0

     total cpu time spent up to now is      123.5 secs

     total energy              =   -4007.06523852 Ry
     estimated scf accuracy    <       0.00002031 Ry

     iteration # 18     ecut=    30.00 Ry     beta= 0.70
     Davidson diagonalization with overlap

---- Real-time Memory Report at c_bands before calling an iterative solver
          1373 MiB given to the printing process from OS
             0 MiB allocation reported by mallinfo(arena+hblkhd)
        129289 MiB available memory on the node where the printing process lives
------------------
     ethr =  4.22E-09,  avg # of iterations =  5.0

     total cpu time spent up to now is      127.9 secs

     total energy              =   -4007.06524020 Ry
     estimated scf accuracy    <       0.00000233 Ry

     iteration # 19     ecut=    30.00 Ry     beta= 0.70
     Davidson diagonalization with overlap

---- Real-time Memory Report at c_bands before calling an iterative solver
          1373 MiB given to the printing process from OS
             0 MiB allocation reported by mallinfo(arena+hblkhd)
        129238 MiB available memory on the node where the printing process lives
------------------
     ethr =  1.04E-09,  avg # of iterations =  6.0

     total cpu time spent up to now is      132.4 secs

     total energy              =   -4007.06524053 Ry
     estimated scf accuracy    <       0.00000104 Ry

     iteration # 20     ecut=    30.00 Ry     beta= 0.70
     Davidson diagonalization with overlap

---- Real-time Memory Report at c_bands before calling an iterative solver
          1373 MiB given to the printing process from OS
             0 MiB allocation reported by mallinfo(arena+hblkhd)
        129263 MiB available memory on the node where the printing process lives
------------------
     ethr =  4.64E-10,  avg # of iterations =  5.0

     total cpu time spent up to now is      136.8 secs

     total energy              =   -4007.06524055 Ry
     estimated scf accuracy    <       0.00000116 Ry

     iteration # 21     ecut=    30.00 Ry     beta= 0.70
     Davidson diagonalization with overlap

---- Real-time Memory Report at c_bands before calling an iterative solver
          1374 MiB given to the printing process from OS
             0 MiB allocation reported by mallinfo(arena+hblkhd)
        129261 MiB available memory on the node where the printing process lives
------------------
     ethr =  4.64E-10,  avg # of iterations =  4.0

     total cpu time spent up to now is      141.2 secs

     End of self-consistent calculation

          k = 0.0000 0.0000 0.0000 (  3704 PWs)   bands (ev):

   -65.0372 -65.0370 -65.0362 -65.0359 -33.1639 -33.1636 -33.1629 -33.1625
   -32.8519 -32.8517 -32.8506 -32.8503 -32.7050 -32.7040 -32.7039 -32.7028
   -19.4530 -19.4505 -19.0281 -19.0268  -8.2958  -8.2701  -8.2328  -8.2313
    -8.2303  -8.2094  -8.1973  -8.1857  -8.1831  -8.1704  -8.1624  -8.1620
    -8.1436  -8.1429  -8.1366  -8.1333  -8.1155  -8.1119  -8.1083  -8.0873
    -7.8779  -7.8776  -7.8026  -7.8017  -7.7995  -7.7995  -7.7948  -7.7935
    -7.7409  -7.7373  -7.4832  -7.4827  -7.4616  -7.4569  -7.4503  -7.4498
    -7.4326  -7.4306  -7.4218  -7.4215  -3.3452  -3.3066  -3.1437  -3.1074
    -3.0880  -2.9909  -2.9754  -2.9434  -2.8523  -2.8018  -2.7004  -2.6835
     3.3579   4.3886   5.0504   5.4438   6.0314   6.5346   6.8943   7.0433
     9.1020   9.1555   9.3764   9.6911   9.7231   9.7291   9.8012  10.0939
    10.1742  10.3663  10.3994  10.6146  10.6685  10.8636  11.1410  11.1893
    11.2054  11.2061  11.3440  11.3757  11.3971  11.5831  11.9359  12.0069
    12.1848  12.4017  12.4905  12.6830  12.7654  12.9473  12.9843  13.8055
    13.9378  14.0716  14.4206  14.4707  14.5622  14.6079  14.6778  14.7225
    14.7956  14.7991  14.9095  15.0185  15.0553  15.1749  15.1991  15.2011
    15.2573  15.2819  15.2839  15.3293  15.4028  15.4194

     occupation numbers 
     1.0000   1.0000   1.0000   1.0000   1.0000   1.0000   1.0000   1.0000
     1.0000   1.0000   1.0000   1.0000   1.0000   1.0000   1.0000   1.0000
     1.0000   1.0000   1.0000   1.0000   1.0000   1.0000   1.0000   1.0000
     1.0000   1.0000   1.0000   1.0000   1.0000   1.0000   1.0000   1.0000
     1.0000   1.0000   1.0000   1.0000   1.0000   1.0000   1.0000   1.0000
     1.0000   1.0000   1.0000   1.0000   1.0000   1.0000   1.0000   1.0000
     1.0000   1.0000   1.0000   1.0000   1.0000   1.0000   1.0000   1.0000
     1.0000   1.0000   1.0000   1.0000   1.0000   1.0000   1.0000   1.0000
     1.0000   1.0000   1.0000   1.0000   1.0000   1.0000   1.0000   1.0000
     1.0000   1.0000   1.0000   1.0000   1.0000   1.0000   1.0000   1.0000
     1.0000   1.0000   1.0000   1.0000   1.0000   1.0000   1.0000   1.0000
     1.0000   1.0000   1.0000   1.0000   1.0000   1.0000   1.0000   1.0000
     1.0000   1.0000   1.0000   1.0000   1.0000   1.0000   1.0000   1.0000
     1.0000   1.0000   1.0000   1.0000   1.0000   1.0000   1.0000   1.0000
    -0.0000  -0.0000  -0.0000  -0.0000  -0.0000  -0.0000  -0.0000  -0.0000
    -0.0000  -0.0000  -0.0000  -0.0000  -0.0000  -0.0000  -0.0000  -0.0000
    -0.0000  -0.0000  -0.0000  -0.0000  -0.0000  -0.0000

     the Fermi energy is    13.8703 ev

!    total energy              =   -4007.06524044 Ry
     estimated scf accuracy    <       0.00000033 Ry
     smearing contrib. (-TS)   =       0.00000000 Ry
     internal energy E=F+TS    =   -4007.06524044 Ry

     The total energy is F=E-TS. E is the sum of the following terms:
     one-electron contribution =    -981.54036180 Ry
     hartree contribution      =     635.06796959 Ry
     xc contribution           =    -504.31617273 Ry
     ewald contribution        =   -1564.04604073 Ry
     one-center paw contrib.   =   -1592.23063475 Ry
      -> PAW hartree energy AE =     140.34724184 Ry
      -> PAW hartree energy PS =    -140.48604786 Ry
      -> PAW xc energy AE      =   -1621.36332419 Ry
      -> PAW xc energy PS      =      29.27149546 Ry
      -> total E_H with PAW    =     634.92916357 Ry
      -> total E_XC with PAW   =   -2096.40800147 Ry

     convergence has been achieved in  21 iterations

     Forces acting on atoms (cartesian axes, Ry/au):

     atom    1 type  1   force =     0.00000000    0.00000000    0.00000000
     atom    2 type  1   force =     0.00000000    0.00000000    0.00000000
     atom    3 type  1   force =    -0.04240504    0.01148067    0.00000000
     atom    4 type  1   force =     0.04240504   -0.01148067    0.00000000
     atom    5 type  2   force =    -0.00105347    0.00027504    0.00000000
     atom    6 type  2   force =    -0.01805327    0.00489856    0.00000000
     atom    7 type  2   force =     0.00105347   -0.00027504    0.00000000
     atom    8 type  2   force =     0.01805327   -0.00489856    0.00000000
     atom    9 type  2   force =     0.04492334   -0.01216814   -0.01641205
     atom   10 type  2   force =    -0.04492334    0.01216814    0.01641205
     atom   11 type  2   force =    -0.04492334    0.01216814   -0.01641205
     atom   12 type  2   force =     0.04492334   -0.01216814    0.01641205
     atom   13 type  3   force =    -0.00708918    0.00191878    0.00541256
     atom   14 type  3   force =     0.00708918   -0.00191878    0.00541256
     atom   15 type  3   force =    -0.00708918    0.00191878   -0.00541256
     atom   16 type  3   force =     0.00708918   -0.00191878   -0.00541256
     The non-local contrib.  to forces
     atom    1 type  1   force =     0.00000000    0.00000000    0.00000000
     atom    2 type  1   force =     0.00000000   -0.00000000    0.00000000
     atom    3 type  1   force =     0.06305759   -0.01707245    0.00000000
     atom    4 type  1   force =    -0.06305759    0.01707245    0.00000000
     atom    5 type  2   force =     0.04719019   -0.01278411    0.00000000
     atom    6 type  2   force =     0.09858558   -0.02668803    0.00000000
     atom    7 type  2   force =    -0.04719019    0.01278411    0.00000000
     atom    8 type  2   force =    -0.09858558    0.02668803    0.00000000
     atom    9 type  2   force =    -0.15832292    0.04286693    0.22206229
     atom   10 type  2   force =     0.15832292   -0.04286693   -0.22206229
     atom   11 type  2   force =     0.15832292   -0.04286693    0.22206229
     atom   12 type  2   force =    -0.15832292    0.04286693   -0.22206229
     atom   13 type  3   force =     0.06428740   -0.01740720   -0.15562758
     atom   14 type  3   force =    -0.06428740    0.01740720   -0.15562758
     atom   15 type  3   force =     0.06428740   -0.01740720    0.15562758
     atom   16 type  3   force =    -0.06428740    0.01740720    0.15562758
     The ionic contribution  to forces
     atom    1 type  1   force =     0.00000000   -0.00000000   -0.00000000
     atom    2 type  1   force =     0.00000000   -0.00000000    0.00000000
     atom    3 type  1   force =     7.25987863   -1.96574877   -0.00000000
     atom    4 type  1   force =    -7.25987863    1.96574877    0.00000000
     atom    5 type  2   force =    15.05975408   -4.07771184    0.00000000
     atom    6 type  2   force =    11.29253239   -3.05766567   -0.00000000
     atom    7 type  2   force =   -15.05975408    4.07771184   -0.00000000
     atom    8 type  2   force =   -11.29253239    3.05766567    0.00000000
     atom    9 type  2   force =    -6.92294815    1.87451850   -5.32843298
     atom   10 type  2   force =     6.92294815   -1.87451850    5.32843298
     atom   11 type  2   force =     6.92294815   -1.87451850   -5.32843298
     atom   12 type  2   force =    -6.92294815    1.87451850    5.32843298
     atom   13 type  3   force =   -16.43742491    4.45074214    5.40207785
     atom   14 type  3   force =    16.43742491   -4.45074214    5.40207785
     atom   15 type  3   force =   -16.43742491    4.45074214   -5.40207785
     atom   16 type  3   force =    16.43742491   -4.45074214   -5.40207785
     The local contribution  to forces
     atom    1 type  1   force =     0.00017102   -0.00005106    0.00001490
     atom    2 type  1   force =    -0.00000417   -0.00000268    0.00000442
     atom    3 type  1   force =    -7.36535452    1.99430839   -0.00097153
     atom    4 type  1   force =     7.36522943   -1.99426442    0.00082973
     atom    5 type  2   force =   -15.10635216    4.09033180    0.00127614
     atom    6 type  2   force =   -11.40580234    3.08832605   -0.00121487
     atom    7 type  2   force =    15.10634995   -4.09034529   -0.00109281
     atom    8 type  2   force =    11.40613020   -3.08842408    0.00100988
     atom    9 type  2   force =     7.12337200   -1.92878841    5.09229483
     atom   10 type  2   force =    -7.12389432    1.92892975   -5.09200847
     atom   11 type  2   force =    -7.12382603    1.92890410    5.09319702
     atom   12 type  2   force =     7.12365074   -1.92884803   -5.09330583
     atom   13 type  3   force =    16.36607658   -4.43141247   -5.24129986
     atom   14 type  3   force =   -16.36596037    4.43139485   -5.24115403
     atom   15 type  3   force =    16.36624954   -4.43150570    5.24145243
     atom   16 type  3   force =   -16.36599396    4.43140113    5.24112856
     The core correction contribution to forces
     atom    1 type  1   force =     0.00000002   -0.00000001    0.00000003
     atom    2 type  1   force =    -0.00000001   -0.00000000   -0.00000003
     atom    3 type  1   force =    -0.00015140    0.00004099   -0.00000013
     atom    4 type  1   force =     0.00015138   -0.00004098    0.00000010
     atom    5 type  2   force =    -0.00164843    0.00044643    0.00000387
     atom    6 type  2   force =    -0.00309011    0.00083623   -0.00000133
     atom    7 type  2   force =     0.00164931   -0.00044705   -0.00000412
     atom    8 type  2   force =     0.00309202   -0.00083687    0.00000113
     atom    9 type  2   force =     0.00247286   -0.00066969   -0.00276767
     atom   10 type  2   force =    -0.00247434    0.00066993    0.00276932
     atom   11 type  2   force =    -0.00247637    0.00067038   -0.00277062
     atom   12 type  2   force =     0.00247625   -0.00067044    0.00277027
     atom   13 type  3   force =     0.00000000    0.00000000    0.00000000
     atom   14 type  3   force =     0.00000000    0.00000000    0.00000000
     atom   15 type  3   force =     0.00000000    0.00000000    0.00000000
     atom   16 type  3   force =     0.00000000    0.00000000    0.00000000
     The Hubbard contrib.    to forces
     atom    1 type  1   force =     0.00000000    0.00000000    0.00000000
     atom    2 type  1   force =     0.00000000    0.00000000    0.00000000
     atom    3 type  1   force =     0.00000000    0.00000000    0.00000000
     atom    4 type  1   force =     0.00000000    0.00000000    0.00000000
     atom    5 type  2   force =     0.00000000    0.00000000    0.00000000
     atom    6 type  2   force =     0.00000000    0.00000000    0.00000000
     atom    7 type  2   force =     0.00000000    0.00000000    0.00000000
     atom    8 type  2   force =     0.00000000    0.00000000    0.00000000
     atom    9 type  2   force =     0.00000000    0.00000000    0.00000000
     atom   10 type  2   force =     0.00000000    0.00000000    0.00000000
     atom   11 type  2   force =     0.00000000    0.00000000    0.00000000
     atom   12 type  2   force =     0.00000000    0.00000000    0.00000000
     atom   13 type  3   force =     0.00000000    0.00000000    0.00000000
     atom   14 type  3   force =     0.00000000    0.00000000    0.00000000
     atom   15 type  3   force =     0.00000000    0.00000000    0.00000000
     atom   16 type  3   force =     0.00000000    0.00000000    0.00000000
     The SCF correction term to forces
     atom    1 type  1   force =    -0.00016036    0.00004685   -0.00000649
     atom    2 type  1   force =    -0.00000419    0.00000112   -0.00001119
     atom    3 type  1   force =     0.00014860   -0.00004133    0.00089716
     atom    4 type  1   force =    -0.00005560    0.00000969   -0.00077689
     atom    5 type  2   force =     0.00000666   -0.00001007   -0.00123504
     atom    6 type  2   force =    -0.00027251    0.00009093    0.00120226
     atom    7 type  2   force =     0.00000230    0.00001851    0.00105398
     atom    8 type  2   force =    -0.00004469    0.00000964   -0.00100165
     atom    9 type  2   force =     0.00034318   -0.00009109    0.00041284
     atom   10 type  2   force =     0.00018406   -0.00004920   -0.00074839
     atom   11 type  2   force =     0.00010784   -0.00002061   -0.00045547
     atom   12 type  2   force =     0.00008347   -0.00004229    0.00059950
     atom   13 type  3   force =    -0.00002440    0.00000433    0.00023610
     atom   14 type  3   force =    -0.00009139    0.00002422    0.00016306
     atom   15 type  3   force =    -0.00020295    0.00008877   -0.00036297
     atom   16 type  3   force =    -0.00004883    0.00001940   -0.00012194

     Total force =     0.120984     Total SCF correction =     0.002899


     Computing stress (Cartesian axis) and pressure

          total   stress  (Ry/bohr**3)                   (kbar)     P=       -9.20
  -0.00015821   0.00010623   0.00000000          -23.27       15.63        0.00
   0.00010623   0.00020536   0.00000000           15.63       30.21        0.00
   0.00000000   0.00000000  -0.00023470            0.00        0.00      -34.53

     kinetic stress (kbar)  19237.53    -63.46      0.00
                              -63.46  19020.35      0.00
                                0.00      0.00  19077.48

     local   stress (kbar)   3438.34  -2389.46      0.05
                            -2389.46  -4739.40     -0.01
                                0.05     -0.01 -10419.40

     nonloc. stress (kbar)   7678.64      3.72      0.00
                                3.72   7691.36      0.00
                                0.00      0.00   7702.39

     hartree stress (kbar)   8278.29   1114.44     -0.01
                             1114.44  12092.37      0.00
                               -0.01      0.00  14591.42

     exc-cor stress (kbar)   6834.46     -0.21     -0.00
                               -0.21   6833.75      0.00
                               -0.00      0.00   6834.50

     corecor stress (kbar) -12691.85     -0.02      0.00
                               -0.02 -12691.92     -0.00
                                0.00     -0.00 -12691.25

     ewald   stress (kbar) -32798.68   1350.61     -0.00
                             1350.61 -28176.31      0.00
                               -0.00      0.00 -25129.66

     hubbard stress (kbar)      0.00      0.00      0.00
                                0.00      0.00      0.00
                                0.00      0.00      0.00

     DFT-D   stress (kbar)      0.00      0.00      0.00
                                0.00      0.00      0.00
                                0.00      0.00      0.00

     XDM     stress (kbar)      0.00      0.00      0.00
                                0.00      0.00      0.00
                                0.00      0.00      0.00

     dft-nl  stress (kbar)      0.00      0.00      0.00
                                0.00      0.00      0.00
                                0.00      0.00      0.00

     TS-vdW  stress (kbar)      0.00      0.00      0.00
                                0.00      0.00      0.00
                                0.00      0.00      0.00


                                0.00      0.00      0.00
                                0.00      0.00      0.00


                                0.00      0.00      0.00


     Writing all to output data dir new_calculations/myprefix.save/
 
     init_run     :    683.49s CPU     30.53s WALL (       1 calls)
     electrons    :   3266.16s CPU    110.37s WALL (       1 calls)
     forces       :     31.26s CPU      1.06s WALL (       1 calls)
     stress       :    114.69s CPU      3.97s WALL (       1 calls)

     Called by init_run:
     wfcinit      :    336.51s CPU     12.54s WALL (       1 calls)
     wfcinit:atom :      0.18s CPU      0.01s WALL (       1 calls)
     wfcinit:wfcr :    335.16s CPU     12.49s WALL (       1 calls)
     potinit      :    123.65s CPU      5.18s WALL (       1 calls)
     hinit0       :    202.74s CPU     11.81s WALL (       1 calls)

     Called by electrons:
     c_bands      :   1681.22s CPU     54.94s WALL (      21 calls)
     sum_band     :    427.27s CPU     16.62s WALL (      21 calls)
     v_of_rho     :     62.98s CPU      2.15s WALL (      22 calls)
     v_h          :      4.24s CPU      0.15s WALL (      22 calls)
     v_xc         :     63.69s CPU      2.17s WALL (      24 calls)
     newd         :    427.18s CPU     14.59s WALL (      22 calls)
     PAW_pot      :    688.43s CPU     23.18s WALL (      22 calls)
     mix_rho      :     12.94s CPU      0.42s WALL (      21 calls)

     Called by c_bands:
     init_us_2    :      1.37s CPU      0.05s WALL (      43 calls)
     init_us_2:cp :      1.30s CPU      0.05s WALL (      43 calls)
     regterg      :   1671.61s CPU     54.61s WALL (      21 calls)

     Called by sum_band:
     sum_band:wei :      0.06s CPU      0.00s WALL (      21 calls)
     sum_band:loo :    223.08s CPU      7.10s WALL (      21 calls)
     sum_band:buf :      0.01s CPU      0.00s WALL (      21 calls)
     sum_band:ini :      0.62s CPU      0.02s WALL (      21 calls)
     sum_band:cal :      0.94s CPU      0.03s WALL (      21 calls)
     sum_band:bec :      0.23s CPU      0.01s WALL (      21 calls)
     addusdens    :    196.57s CPU      9.26s WALL (      21 calls)
     addusd:skk   :      1.08s CPU      0.07s WALL (      42 calls)
     addusd:dgemm :     11.88s CPU      3.06s WALL (      42 calls)
     addusd:qvan2 :    135.66s CPU      4.39s WALL (      42 calls)

     Called by *egterg:
     rdiaghg      :     94.31s CPU      3.14s WALL (     169 calls)
     regterg:over :      4.63s CPU      0.15s WALL (     148 calls)
     regterg:upda :      5.10s CPU      0.17s WALL (     148 calls)
     regterg:last :      9.59s CPU      0.32s WALL (      47 calls)
     h_psi        :   1873.46s CPU     62.65s WALL (     170 calls)
     s_psi        :      1.68s CPU      0.06s WALL (     170 calls)
     g_psi        :      0.29s CPU      0.01s WALL (     148 calls)

     Called by h_psi:
     h_psi:calbec :      4.30s CPU      0.15s WALL (     170 calls)
     vloc_psi     :   1864.39s CPU     62.35s WALL (     170 calls)
     add_vuspsi   :      3.05s CPU      0.10s WALL (     170 calls)

     General routines
     calbec       :      5.10s CPU      0.18s WALL (     196 calls)
     fft          :    194.70s CPU      9.69s WALL (     260 calls)
     ffts         :     80.61s CPU      3.39s WALL (      43 calls)
     fftw         :   1783.37s CPU     59.37s WALL (    9007 calls)
     interpolate  :     86.56s CPU      3.59s WALL (      22 calls)
 
     Parallel routines

     PAW routines
     PAW_pot      :    688.43s CPU     23.18s WALL (      22 calls)
     PAW_symme    :      0.86s CPU      0.03s WALL (      43 calls)
 
     PWSCF        :      1h 8m CPU   2m26.98s WALL

 
   This run was terminated on:   9:30: 1  20May2023            

=------------------------------------------------------------------------------=
   JOB DONE.
=------------------------------------------------------------------------------=
