
     Program PWSCF v.7.0 starts on 21May2023 at  5:43:52 

     This program is part of the open-source Quantum ESPRESSO suite
     for quantum simulation of materials; please cite
         "P. Giannozzi et al., J. Phys.:Condens. Matter 21 395502 (2009);
         "P. Giannozzi et al., J. Phys.:Condens. Matter 29 465901 (2017);
         "P. Giannozzi et al., J. Chem. Phys. 152 154105 (2020);
          URL http://www.quantum-espresso.org", 
     in publications or presentations arising from this work. More details at
     http://www.quantum-espresso.org/quote

     Parallel version (MPI & OpenMP), running on      32 processor cores
     Number of MPI processes:                 1
     Threads/MPI process:                    32

     MPI processes distributed on     1 nodes
     173034 MiB available memory on the printing compute node when the environment starts
 
     Reading input from espresso_4968.pwi
Warning: card &CELL ignored
Warning: card / ignored

     Current dimensions of program PWSCF are:
     Max number of different atomic species (ntypx) = 10
     Max number of k-points (npk) =  40000
     Max angular momentum in pseudopotentials (lmaxx) =  4
     file In.pbe-dn-rrkjus_psl.0.2.2.UPF: wavefunction(s)  5S renormalized

     gamma-point specific algorithms are used
     Message from routine setup:
     using ibrav=0 with symmetry is DISCOURAGED, use correct ibrav instead

     Subspace diagonalization in iterative solution of the eigenvalue problem:
     a serial algorithm will be used

 
     G-vector sticks info
     --------------------
     sticks:   dense  smooth     PW     G-vecs:    dense   smooth      PW
     Sum        3273    1643    413               130211    46077    5729
 
     Using Slab Decomposition
 


     bravais-lattice index     =            0
     lattice parameter (alat)  =      14.0149  a.u.
     unit-cell volume          =    2073.8903 (a.u.)^3
     number of atoms/cell      =            8
     number of atomic types    =            3
     number of electrons       =        68.00
     number of Kohn-Sham states=           41
     kinetic-energy cutoff     =      30.0000  Ry
     charge density cutoff     =     240.0000  Ry
     scf convergence threshold =      1.0E-06
     mixing beta               =       0.7000
     number of iterations used =            8  plain     mixing
     Exchange-correlation= SLA  PW   PBE  PBE
                           (   1   4   3   4   0   0   0)

     celldm(1)=  14.014921  celldm(2)=   0.000000  celldm(3)=   0.000000
     celldm(4)=   0.000000  celldm(5)=   0.000000  celldm(6)=   0.000000

     crystal axes: (cart. coord. in units of alat)
               a(1) = (   1.000000   0.000000   0.000000 )  
               a(2) = (  -0.485781   0.874080   0.000000 )  
               a(3) = (  -0.257109  -0.437040   0.861911 )  

     reciprocal axes: (cart. coord. in units 2 pi/alat)
               b(1) = (  1.000000  0.555762  0.580106 )  
               b(2) = (  0.000000  1.144059  0.580106 )  
               b(3) = (  0.000000  0.000000  1.160213 )  


     PseudoPot. # 1 for Rb read from file:
     /home/pragov/projects/rrg-bengioy-ad/pragov/crystal_structure_design/SSSP/Rb_ONCV_PBE-1.0.oncvpsp.upf
     MD5 check sum: 55a5172d6bfbce6759a58e35d43f6aa9
     Pseudo is Norm-conserving, Zval =  9.0
     Generated using ONCVPSP code by D. R. Hamann
     Using radial grid of 2308 points,  6 beta functions with: 
                l(1) =   0
                l(2) =   0
                l(3) =   1
                l(4) =   1
                l(5) =   2
                l(6) =   2

     PseudoPot. # 2 for In read from file:
     /home/pragov/projects/rrg-bengioy-ad/pragov/crystal_structure_design/SSSP/In.pbe-dn-rrkjus_psl.0.2.2.UPF
     MD5 check sum: 25e7c42c3b55b68f4bf926be2e7201a4
     Pseudo is Ultrasoft + core correction, Zval = 13.0
     Generated using "atomic" code by A. Dal Corso  v.5.0.99 svn rev. 10869
     Using radial grid of 1241 points,  6 beta functions with: 
                l(1) =   0
                l(2) =   0
                l(3) =   1
                l(4) =   1
                l(5) =   2
                l(6) =   2
     Q(r) pseudized with 0 coefficients 


     PseudoPot. # 3 for Te read from file:
     /home/pragov/projects/rrg-bengioy-ad/pragov/crystal_structure_design/SSSP/Te_pbe_v1.uspp.F.UPF
     MD5 check sum: c319670d6894cc26e93307826a071b75
     Pseudo is Ultrasoft + core correction, Zval =  6.0
     Generated by new atomic code, or converted to UPF format
     Using radial grid of  891 points,  5 beta functions with: 
                l(1) =   0
                l(2) =   0
                l(3) =   1
                l(4) =   1
                l(5) =   2
     Q(r) pseudized with  6 coefficients,  rinner =    1.800   1.800   1.800
                                                       1.800   1.800

     atomic species   valence    mass     pseudopotential
        Rb             9.00    85.46780     Rb( 1.00)
        In            13.00   114.81800     In( 1.00)
        Te             6.00   127.60000     Te( 1.00)

      4 Sym. Ops., with inversion, found ( 2 have fractional translation)


                                    s                        frac. trans.

      isym =  1     identity                                     

 cryst.   s( 1) = (     1          0          0      )
                  (     0          1          0      )
                  (     0          0          1      )

 cart.    s( 1) = (  1.0000000  0.0000000 -0.0000000 )
                  (  0.0000000  1.0000000  0.0000000 )
                  (  0.0000000  0.0000000  1.0000000 )


      isym =  2     180 deg rotation - cart. axis [0,0,1]        

 cryst.   s( 2) = (    -1          0          0      )    f =( -0.5000000 )
                  (     0         -1          0      )       (  0.5000000 )
                  (     1          1          1      )       (  0.0000000 )

 cart.    s( 2) = ( -1.0000000 -0.0000000  0.0000000 )    f =( -0.7428906 )
                  (  0.0000000 -1.0000000  0.0000000 )       (  0.4370402 )
                  (  0.0000000  0.0000000  1.0000000 )       (  0.0000000 )


      isym =  3     inversion                                    

 cryst.   s( 3) = (    -1          0          0      )
                  (     0         -1          0      )
                  (     0          0         -1      )

 cart.    s( 3) = ( -1.0000000 -0.0000000  0.0000000 )
                  (  0.0000000 -1.0000000 -0.0000000 )
                  (  0.0000000  0.0000000 -1.0000000 )


      isym =  4     inv. 180 deg rotation - cart. axis [0,0,1]   

 cryst.   s( 4) = (     1          0          0      )    f =(  0.5000000 )
                  (     0          1          0      )       ( -0.5000000 )
                  (    -1         -1         -1      )       (  0.0000000 )

 cart.    s( 4) = (  1.0000000  0.0000000 -0.0000000 )    f =(  0.7428906 )
                  (  0.0000000  1.0000000 -0.0000000 )       ( -0.4370402 )
                  (  0.0000000  0.0000000 -1.0000000 )       (  0.0000000 )


   Cartesian axes

     site n.     atom                  positions (alat units)
         1           Rb  tau(   1) = (   0.3856642   0.6555604   0.0000000  )
         2           Rb  tau(   2) = (   0.1285547   0.2185201   0.0000000  )
         3           In  tau(   3) = (   0.5000000   0.0000000   0.4309555  )
         4           In  tau(   4) = (  -0.2428906   0.4370402   0.4309555  )
         5           Te  tau(   5) = (   0.3769332   0.3665483   0.4309555  )
         6           Te  tau(   6) = (   0.3714450  -0.2185206   0.7228908  )
         7           Te  tau(   7) = (  -0.1143356   0.6555608   0.1390202  )
         8           Te  tau(   8) = (  -0.1198238   0.0704920   0.4309555  )

   Crystallographic axes

     site n.     atom                  positions (cryst. coord.)
         1           Rb  tau(   1) = (  0.7500000  0.7500000  0.0000000  )
         2           Rb  tau(   2) = (  0.2500000  0.2500000  0.0000000  )
         3           In  tau(   3) = (  0.7500000  0.2500000  0.5000000  )
         4           In  tau(   4) = (  0.2500000  0.7500000  0.5000000  )
         5           Te  tau(   5) = (  0.8306470  0.6693530  0.5000000  )
         6           Te  tau(   6) = (  0.6693530  0.1693530  0.8387070  )
         7           Te  tau(   7) = (  0.3306470  0.8306470  0.1612930  )
         8           Te  tau(   8) = (  0.1693530  0.3306470  0.5000000  )

     number of k points=     1  Methfessel-Paxton smearing, width (Ry)=  0.0010
                       cart. coord. in units 2pi/alat
        k(    1) = (   0.0000000   0.0000000   0.0000000), wk =   2.0000000

                       cryst. coord.
        k(    1) = (   0.0000000   0.0000000   0.0000000), wk =   2.0000000

     Dense  grid:    65106 G-vectors     FFT dimensions: (  72,  72,  72)

     Smooth grid:    23039 G-vectors     FFT dimensions: (  50,  50,  50)

     Dynamical RAM for                 wfc:       1.80 MB

     Dynamical RAM for     wfc (w. buffer):       1.80 MB

     Dynamical RAM for           str. fact:       2.98 MB

     Dynamical RAM for           local pot:       0.00 MB

     Dynamical RAM for          nlocal pot:       5.44 MB

     Dynamical RAM for                qrad:       3.73 MB

     Dynamical RAM for          rho,v,vnew:      11.52 MB

     Dynamical RAM for               rhoin:       3.84 MB

     Dynamical RAM for            rho*nmix:      15.90 MB

     Dynamical RAM for           G-vectors:       3.90 MB

     Dynamical RAM for          h,s,v(r/c):       0.15 MB

     Dynamical RAM for          <psi|beta>:       0.04 MB

     Dynamical RAM for                 psi:       3.60 MB

     Dynamical RAM for                hpsi:       3.60 MB

     Dynamical RAM for                spsi:       3.60 MB

     Dynamical RAM for      wfcinit/wfcrot:       3.91 MB

     Dynamical RAM for           addusdens:     188.75 MB

     Dynamical RAM for          addusforce:     195.23 MB

     Dynamical RAM for         addusstress:     199.68 MB

     Estimated static dynamical RAM per process >      51.43 MB

     Estimated max dynamical RAM per process >     267.01 MB

     Initial potential from superposition of free atoms

     starting charge      67.9422, renormalised to      68.0000
     Starting wfcs are   44 randomized atomic wfcs

     total cpu time spent up to now is       10.5 secs

     Self-consistent Calculation

     iteration #  1     ecut=    30.00 Ry     beta= 0.70
     Davidson diagonalization with overlap

---- Real-time Memory Report at c_bands before calling an iterative solver
           544 MiB given to the printing process from OS
             0 MiB allocation reported by mallinfo(arena+hblkhd)
        172782 MiB available memory on the node where the printing process lives
------------------
     ethr =  1.00E-02,  avg # of iterations =  5.0

     Threshold (ethr) on eigenvalues was too large:
     Diagonalizing with lowered threshold

     Davidson diagonalization with overlap

---- Real-time Memory Report at c_bands before calling an iterative solver
           621 MiB given to the printing process from OS
             0 MiB allocation reported by mallinfo(arena+hblkhd)
        172782 MiB available memory on the node where the printing process lives
------------------
     ethr =  3.04E-04,  avg # of iterations =  4.0

     total cpu time spent up to now is       17.1 secs

     total energy              =    -493.87441830 Ry
     estimated scf accuracy    <       0.18956051 Ry

     iteration #  2     ecut=    30.00 Ry     beta= 0.70
     Davidson diagonalization with overlap

---- Real-time Memory Report at c_bands before calling an iterative solver
           654 MiB given to the printing process from OS
             0 MiB allocation reported by mallinfo(arena+hblkhd)
        172740 MiB available memory on the node where the printing process lives
------------------
     ethr =  2.79E-04,  avg # of iterations =  3.0

     total cpu time spent up to now is       17.9 secs

     total energy              =    -493.91818825 Ry
     estimated scf accuracy    <       0.07589716 Ry

     iteration #  3     ecut=    30.00 Ry     beta= 0.70
     Davidson diagonalization with overlap

---- Real-time Memory Report at c_bands before calling an iterative solver
           670 MiB given to the printing process from OS
             0 MiB allocation reported by mallinfo(arena+hblkhd)
        172728 MiB available memory on the node where the printing process lives
------------------
     ethr =  1.12E-04,  avg # of iterations =  2.0

     total cpu time spent up to now is       18.7 secs

     total energy              =    -493.93660202 Ry
     estimated scf accuracy    <       0.00425978 Ry

     iteration #  4     ecut=    30.00 Ry     beta= 0.70
     Davidson diagonalization with overlap

---- Real-time Memory Report at c_bands before calling an iterative solver
           671 MiB given to the printing process from OS
             0 MiB allocation reported by mallinfo(arena+hblkhd)
        172728 MiB available memory on the node where the printing process lives
------------------
     ethr =  6.26E-06,  avg # of iterations = 12.0

     total cpu time spent up to now is       20.6 secs

     total energy              =    -493.93757993 Ry
     estimated scf accuracy    <       0.00023060 Ry

     iteration #  5     ecut=    30.00 Ry     beta= 0.70
     Davidson diagonalization with overlap

---- Real-time Memory Report at c_bands before calling an iterative solver
           673 MiB given to the printing process from OS
             0 MiB allocation reported by mallinfo(arena+hblkhd)
        172728 MiB available memory on the node where the printing process lives
------------------
     ethr =  3.39E-07,  avg # of iterations =  4.0

     total cpu time spent up to now is       24.1 secs

     total energy              =    -493.93763871 Ry
     estimated scf accuracy    <       0.00001895 Ry

     iteration #  6     ecut=    30.00 Ry     beta= 0.70
     Davidson diagonalization with overlap

---- Real-time Memory Report at c_bands before calling an iterative solver
           674 MiB given to the printing process from OS
             0 MiB allocation reported by mallinfo(arena+hblkhd)
        172731 MiB available memory on the node where the printing process lives
------------------
     ethr =  2.79E-08,  avg # of iterations =  4.0

     total cpu time spent up to now is       27.8 secs

     total energy              =    -493.93764693 Ry
     estimated scf accuracy    <       0.00000193 Ry

     iteration #  7     ecut=    30.00 Ry     beta= 0.70
     Davidson diagonalization with overlap

---- Real-time Memory Report at c_bands before calling an iterative solver
           674 MiB given to the printing process from OS
             0 MiB allocation reported by mallinfo(arena+hblkhd)
        172731 MiB available memory on the node where the printing process lives
------------------
     ethr =  2.84E-09,  avg # of iterations =  4.0

     total cpu time spent up to now is       31.3 secs

     total energy              =    -493.93764764 Ry
     estimated scf accuracy    <       0.00000137 Ry

     iteration #  8     ecut=    30.00 Ry     beta= 0.70
     Davidson diagonalization with overlap

---- Real-time Memory Report at c_bands before calling an iterative solver
           674 MiB given to the printing process from OS
             0 MiB allocation reported by mallinfo(arena+hblkhd)
        172731 MiB available memory on the node where the printing process lives
------------------
     ethr =  2.01E-09,  avg # of iterations =  2.0

     total cpu time spent up to now is       34.3 secs

     End of self-consistent calculation

          k = 0.0000 0.0000 0.0000 (  2865 PWs)   bands (ev):

   -22.3299 -22.2760  -9.7104  -9.7104  -9.6621  -9.6325  -9.5932  -9.5932
    -9.5876  -9.5551  -9.5474  -9.5172  -6.8635  -6.4544  -6.4544  -6.3452
    -6.3452  -6.2125  -6.1955  -5.3565  -5.0491  -5.0487  -0.2437   0.2173
     1.3344   2.1749   2.1753   2.4383   2.4383   3.6728   3.9693   4.0707
     4.3375   4.3375   6.0073   7.0988   7.8864   8.2333   8.7426   8.7426
     9.5492

     occupation numbers 
     1.0000   1.0000   1.0000   1.0000   1.0000   1.0000   1.0000   1.0000
     1.0000   1.0000   1.0000   1.0000   1.0000   1.0000   1.0000   1.0000
     1.0000   1.0000   1.0000   1.0000   1.0000   1.0000   1.0000   1.0000
     1.0000   1.0000   1.0000   1.0000   1.0000   1.0000   1.0000   1.0000
     1.0000   1.0000  -0.0000  -0.0000  -0.0000  -0.0000  -0.0000  -0.0000
    -0.0000

     the Fermi energy is     5.6664 ev

!    total energy              =    -493.93764796 Ry
     estimated scf accuracy    <       0.00000002 Ry
     smearing contrib. (-TS)   =       0.00000000 Ry
     internal energy E=F+TS    =    -493.93764796 Ry

     The total energy is F=E-TS. E is the sum of the following terms:
     one-electron contribution =    -194.31110947 Ry
     hartree contribution      =     130.66354432 Ry
     xc contribution           =    -168.09985935 Ry
     ewald contribution        =    -262.19022346 Ry

     convergence has been achieved in   8 iterations

     Forces acting on atoms (cartesian axes, Ry/au):

     atom    1 type  1   force =     0.00000000    0.00000000    0.00000134
     atom    2 type  1   force =     0.00000000    0.00000000   -0.00000134
     atom    3 type  2   force =     0.00001548    0.00001932   -0.00000000
     atom    4 type  2   force =    -0.00001548   -0.00001932    0.00000000
     atom    5 type  3   force =    -0.01157685    0.00680952    0.00000000
     atom    6 type  3   force =     0.00000000    0.00000000    0.01343134
     atom    7 type  3   force =     0.00000000    0.00000000   -0.01343134
     atom    8 type  3   force =     0.01157685   -0.00680952   -0.00000000
     The non-local contrib.  to forces
     atom    1 type  1   force =     0.00000000    0.00000000    0.00000001
     atom    2 type  1   force =     0.00000000    0.00000000   -0.00000001
     atom    3 type  2   force =     0.00002231    0.00002796   -0.00000000
     atom    4 type  2   force =    -0.00002231   -0.00002796    0.00000000
     atom    5 type  3   force =    -0.12234059    0.07197117    0.00000000
     atom    6 type  3   force =     0.00000000    0.00000000    0.14193195
     atom    7 type  3   force =     0.00000000    0.00000000   -0.14193195
     atom    8 type  3   force =     0.12234059   -0.07197117   -0.00000000
     The ionic contribution  to forces
     atom    1 type  1   force =     0.00000662   -0.00000390    0.00000000
     atom    2 type  1   force =    -0.00000662    0.00000390    0.00000000
     atom    3 type  2   force =    -0.00001869   -0.00003176    0.00002168
     atom    4 type  2   force =     0.00001869    0.00003176   -0.00002168
     atom    5 type  3   force =    -3.48688418    2.05132329   -0.00000000
     atom    6 type  3   force =     0.00000764    0.00001299    4.04548880
     atom    7 type  3   force =    -0.00000764   -0.00001299   -4.04548880
     atom    8 type  3   force =     3.48688418   -2.05132329   -0.00000000
     The local contribution  to forces
     atom    1 type  1   force =    -0.00003207    0.00001636   -0.00006295
     atom    2 type  1   force =    -0.00000611    0.00001097   -0.00006223
     atom    3 type  2   force =     0.00005205   -0.00000080    0.00009061
     atom    4 type  2   force =     0.00005247   -0.00007378    0.00017708
     atom    5 type  3   force =     3.61851177   -2.12876507    0.00002912
     atom    6 type  3   force =     0.00000059   -0.00001445   -4.19825179
     atom    7 type  3   force =     0.00002194    0.00000612    4.19824432
     atom    8 type  3   force =    -3.61851217    2.12876694    0.00001825
     The core correction contribution to forces
     atom    1 type  1   force =     0.00000000    0.00000000    0.00000000
     atom    2 type  1   force =     0.00000000    0.00000000    0.00000000
     atom    3 type  2   force =    -0.00000059   -0.00000237    0.00000204
     atom    4 type  2   force =     0.00000207    0.00000057    0.00000356
     atom    5 type  3   force =    -0.02086028    0.01227175    0.00000041
     atom    6 type  3   force =     0.00000053   -0.00000152    0.02419958
     atom    7 type  3   force =     0.00000024    0.00000026   -0.02420322
     atom    8 type  3   force =     0.02085792   -0.01227096    0.00000238
     The Hubbard contrib.    to forces
     atom    1 type  1   force =     0.00000000    0.00000000    0.00000000
     atom    2 type  1   force =     0.00000000    0.00000000    0.00000000
     atom    3 type  2   force =     0.00000000    0.00000000    0.00000000
     atom    4 type  2   force =     0.00000000    0.00000000    0.00000000
     atom    5 type  3   force =     0.00000000    0.00000000    0.00000000
     atom    6 type  3   force =     0.00000000    0.00000000    0.00000000
     atom    7 type  3   force =     0.00000000    0.00000000    0.00000000
     atom    8 type  3   force =     0.00000000    0.00000000    0.00000000
     The SCF correction term to forces
     atom    1 type  1   force =     0.00002378   -0.00000562    0.00006582
     atom    2 type  1   force =     0.00001496   -0.00001521    0.00006244
     atom    3 type  2   force =    -0.00004706    0.00003442   -0.00013247
     atom    4 type  2   force =    -0.00007386    0.00005820   -0.00017490
     atom    5 type  3   force =     0.00000840    0.00000377   -0.00003621
     atom    6 type  3   force =    -0.00001641    0.00001987    0.00008184
     atom    7 type  3   force =    -0.00001744    0.00000362   -0.00003266
     atom    8 type  3   force =     0.00001831   -0.00001565   -0.00004680

     Total force =     0.026862     Total SCF correction =     0.000287


     Computing stress (Cartesian axis) and pressure

          total   stress  (Ry/bohr**3)                   (kbar)     P=        2.07
   0.00001128   0.00001620  -0.00000000            1.66        2.38       -0.00
   0.00001620   0.00002929  -0.00000000            2.38        4.31       -0.00
  -0.00000000  -0.00000000   0.00000171           -0.00       -0.00        0.25

     kinetic stress (kbar)   4935.58    -37.69     -0.00
                              -37.69   4893.70     -0.00
                               -0.00     -0.00   4957.74

     local   stress (kbar)   2288.85  -2378.51     -0.00
                            -2378.51   -354.92     -0.00
                               -0.00     -0.00   3688.16

     nonloc. stress (kbar)  -1705.42     24.30      0.00
                               24.30  -1678.41      0.00
                                0.00      0.00  -1719.70

     hartree stress (kbar)   2919.47    974.41      0.00
                              974.41   4002.56      0.00
                                0.00      0.00   2346.19

     exc-cor stress (kbar)   5271.94      0.61     -0.00
                                0.61   5272.62      0.00
                               -0.00      0.00   5271.58

     corecor stress (kbar)  -7262.48      2.70     -0.00
                                2.70  -7259.48      0.00
                               -0.00      0.00  -7264.07

     ewald   stress (kbar)  -6446.28   1416.55      0.00
                             1416.55  -4871.75      0.00
                                0.00      0.00  -7279.63

     hubbard stress (kbar)      0.00      0.00      0.00
                                0.00      0.00      0.00
                                0.00      0.00      0.00

     DFT-D   stress (kbar)      0.00      0.00      0.00
                                0.00      0.00      0.00
                                0.00      0.00      0.00

     XDM     stress (kbar)      0.00      0.00      0.00
                                0.00      0.00      0.00
                                0.00      0.00      0.00

     dft-nl  stress (kbar)      0.00      0.00      0.00
                                0.00      0.00      0.00
                                0.00      0.00      0.00

     TS-vdW  stress (kbar)      0.00      0.00      0.00
                                0.00      0.00      0.00
                                0.00      0.00      0.00


                                0.00      0.00      0.00
                                0.00      0.00      0.00


                                0.00      0.00      0.00


     Writing all to output data dir new_calculations/myprefix.save/
 
     init_run     :    268.52s CPU     10.27s WALL (       1 calls)
     electrons    :    704.32s CPU     23.85s WALL (       1 calls)
     forces       :      7.67s CPU      0.27s WALL (       1 calls)
     stress       :     21.65s CPU      0.74s WALL (       1 calls)

     Called by init_run:
     wfcinit      :    148.67s CPU      5.00s WALL (       1 calls)
     wfcinit:atom :      0.07s CPU      0.00s WALL (       1 calls)
     wfcinit:wfcr :    148.33s CPU      4.98s WALL (       1 calls)
     potinit      :     40.52s CPU      1.36s WALL (       1 calls)
     hinit0       :     75.30s CPU      3.74s WALL (       1 calls)

     Called by electrons:
     c_bands      :    531.00s CPU     17.62s WALL (       9 calls)
     sum_band     :    131.71s CPU      4.81s WALL (       9 calls)
     v_of_rho     :     12.38s CPU      0.42s WALL (       9 calls)
     v_h          :      0.94s CPU      0.03s WALL (       9 calls)
     v_xc         :     13.62s CPU      0.47s WALL (      11 calls)
     newd         :     28.67s CPU      0.99s WALL (       9 calls)
     mix_rho      :      2.47s CPU      0.08s WALL (       9 calls)

     Called by c_bands:
     init_us_2    :      0.64s CPU      0.02s WALL (      19 calls)
     init_us_2:cp :      0.61s CPU      0.02s WALL (      19 calls)
     regterg      :    529.91s CPU     17.58s WALL (       9 calls)

     Called by sum_band:
     sum_band:wei :      0.02s CPU      0.00s WALL (       9 calls)
     sum_band:loo :    103.93s CPU      3.45s WALL (       9 calls)
     sum_band:buf :      0.01s CPU      0.00s WALL (       9 calls)
     sum_band:ini :      0.34s CPU      0.01s WALL (       9 calls)
     sum_band:cal :      0.11s CPU      0.00s WALL (       9 calls)
     sum_band:bec :      0.08s CPU      0.00s WALL (       9 calls)
     addusdens    :     25.68s CPU      1.29s WALL (       9 calls)
     addusd:skk   :      0.29s CPU      0.01s WALL (      18 calls)
     addusd:dgemm :      2.12s CPU      0.49s WALL (      18 calls)
     addusd:qvan2 :     22.17s CPU      0.73s WALL (      18 calls)

     Called by *egterg:
     rdiaghg      :      3.36s CPU      0.11s WALL (      48 calls)
     regterg:over :      8.13s CPU      0.28s WALL (      40 calls)
     regterg:upda :      0.55s CPU      0.02s WALL (      40 calls)
     regterg:last :      1.01s CPU      0.04s WALL (      20 calls)
     h_psi        :    659.19s CPU     21.91s WALL (      50 calls)
     s_psi        :      0.20s CPU      0.01s WALL (      50 calls)
     g_psi        :      0.10s CPU      0.00s WALL (      40 calls)

     Called by h_psi:
     h_psi:calbec :      2.22s CPU      0.08s WALL (      50 calls)
     vloc_psi     :    655.99s CPU     21.79s WALL (      50 calls)
     add_vuspsi   :      0.31s CPU      0.01s WALL (      50 calls)

     General routines
     calbec       :      2.29s CPU      0.08s WALL (      64 calls)
     fft          :     66.02s CPU      2.50s WALL (     118 calls)
     ffts         :     38.42s CPU      1.29s WALL (      18 calls)
     fftw         :    744.56s CPU     24.72s WALL (    1259 calls)
     interpolate  :     39.19s CPU      1.32s WALL (       9 calls)
 
     Parallel routines
 
     PWSCF        :  16m45.69s CPU     35.43s WALL

 
   This run was terminated on:   5:44:27  21May2023            

=------------------------------------------------------------------------------=
   JOB DONE.
=------------------------------------------------------------------------------=
