
     Program PWSCF v.7.0 starts on 20May2023 at 20: 5:50 

     This program is part of the open-source Quantum ESPRESSO suite
     for quantum simulation of materials; please cite
         "P. Giannozzi et al., J. Phys.:Condens. Matter 21 395502 (2009);
         "P. Giannozzi et al., J. Phys.:Condens. Matter 29 465901 (2017);
         "P. Giannozzi et al., J. Chem. Phys. 152 154105 (2020);
          URL http://www.quantum-espresso.org", 
     in publications or presentations arising from this work. More details at
     http://www.quantum-espresso.org/quote

     Parallel version (MPI & OpenMP), running on      32 processor cores
     Number of MPI processes:                 1
     Threads/MPI process:                    32

     MPI processes distributed on     1 nodes
     118868 MiB available memory on the printing compute node when the environment starts
 
     Reading input from espresso_10680.pwi
Warning: card &CELL ignored
Warning: card / ignored

     Current dimensions of program PWSCF are:
     Max number of different atomic species (ntypx) = 10
     Max number of k-points (npk) =  40000
     Max angular momentum in pseudopotentials (lmaxx) =  4
     file Ba.pbe-spn-kjpaw_psl.1.0.0.UPF: wavefunction(s)  5S 6S renormalized
     file Al.pbe-n-kjpaw_psl.1.0.0.UPF: wavefunction(s)  3S 3P renormalized
     file Fe.pbe-spn-kjpaw_psl.0.2.1.UPF: wavefunction(s)  3D renormalized

     gamma-point specific algorithms are used
     Message from routine setup:
     using ibrav=0 with symmetry is DISCOURAGED, use correct ibrav instead

     Subspace diagonalization in iterative solution of the eigenvalue problem:
     a serial algorithm will be used

 
     G-vector sticks info
     --------------------
     sticks:   dense  smooth     PW     G-vecs:    dense   smooth      PW
     Sum        3793    1891    475                93037    32817    4147
 
     Using Slab Decomposition
 


     bravais-lattice index     =            0
     lattice parameter (alat)  =      15.1308  a.u.
     unit-cell volume          =    1479.8954 (a.u.)^3
     number of atoms/cell      =           12
     number of atomic types    =            3
     number of electrons       =        69.00
     number of Kohn-Sham states=           42
     kinetic-energy cutoff     =      30.0000  Ry
     charge density cutoff     =     240.0000  Ry
     scf convergence threshold =      1.0E-06
     mixing beta               =       0.7000
     number of iterations used =            8  plain     mixing
     Exchange-correlation= SLA  PW   PBX  PBC
                           (   1   4   3   4   0   0   0)

     celldm(1)=  15.130785  celldm(2)=   0.000000  celldm(3)=   0.000000
     celldm(4)=   0.000000  celldm(5)=   0.000000  celldm(6)=   0.000000

     crystal axes: (cart. coord. in units of alat)
               a(1) = (   1.000000   0.000000   0.000000 )  
               a(2) = (  -0.500000   0.866025   0.000000 )  
               a(3) = (   0.000000   0.000000   0.493306 )  

     reciprocal axes: (cart. coord. in units 2 pi/alat)
               b(1) = (  1.000000  0.577350  0.000000 )  
               b(2) = (  0.000000  1.154701  0.000000 )  
               b(3) = (  0.000000  0.000000  2.027141 )  


     PseudoPot. # 1 for Ba read from file:
     /home/pragov/projects/rrg-bengioy-ad/pragov/crystal_structure_design/SSSP/Ba.pbe-spn-kjpaw_psl.1.0.0.UPF
     MD5 check sum: c432291d3e53af55f19d5e8866385beb
     Pseudo is Projector augmented-wave + core cor, Zval = 10.0
     Generated using "atomic" code by A. Dal Corso  v.5.1
     Shape of augmentation charge: PSQ
     Using radial grid of 1251 points,  7 beta functions with: 
                l(1) =   0
                l(2) =   0
                l(3) =   0
                l(4) =   1
                l(5) =   1
                l(6) =   2
                l(7) =   2
     Q(r) pseudized with 0 coefficients 


     PseudoPot. # 2 for Al read from file:
     /home/pragov/projects/rrg-bengioy-ad/pragov/crystal_structure_design/SSSP/Al.pbe-n-kjpaw_psl.1.0.0.UPF
     MD5 check sum: cfc449ca30b5f3223ec38ddd88ac046d
     Pseudo is Projector augmented-wave + core cor, Zval =  3.0
     Generated using "atomic" code by A. Dal Corso  v.5.1
     Shape of augmentation charge: PSQ
     Using radial grid of 1135 points,  6 beta functions with: 
                l(1) =   0
                l(2) =   0
                l(3) =   1
                l(4) =   1
                l(5) =   2
                l(6) =   2
     Q(r) pseudized with 0 coefficients 


     PseudoPot. # 3 for Fe read from file:
     /home/pragov/projects/rrg-bengioy-ad/pragov/crystal_structure_design/SSSP/Fe.pbe-spn-kjpaw_psl.0.2.1.UPF
     MD5 check sum: e86618425769142926afa95317d90200
     Pseudo is Projector augmented-wave + core cor, Zval = 16.0
     Generated using "atomic" code by A. Dal Corso  v.5.0.99 svn rev. 10869
     Shape of augmentation charge: PSQ
     Using radial grid of 1191 points,  6 beta functions with: 
                l(1) =   0
                l(2) =   0
                l(3) =   1
                l(4) =   1
                l(5) =   2
                l(6) =   2
     Q(r) pseudized with 0 coefficients 


     atomic species   valence    mass     pseudopotential
        Ba            10.00   137.32700     Ba( 1.00)
        Al             3.00    26.98154     Al( 1.00)
        Fe            16.00    55.84500     Fe( 1.00)

     24 Sym. Ops., with inversion, found


                                    s                        frac. trans.

      isym =  1     identity                                     

 cryst.   s( 1) = (     1          0          0      )
                  (     0          1          0      )
                  (     0          0          1      )

 cart.    s( 1) = (  1.0000000  0.0000000  0.0000000 )
                  (  0.0000000  1.0000000  0.0000000 )
                  (  0.0000000  0.0000000  1.0000000 )


      isym =  2     180 deg rotation - cart. axis [0,0,1]        

 cryst.   s( 2) = (    -1          0          0      )
                  (     0         -1          0      )
                  (     0          0          1      )

 cart.    s( 2) = ( -1.0000000 -0.0000000  0.0000000 )
                  (  0.0000000 -1.0000000  0.0000000 )
                  (  0.0000000  0.0000000  1.0000000 )


      isym =  3     180 deg rotation - cart. axis [0,1,0]        

 cryst.   s( 3) = (    -1          0          0      )
                  (     1          1          0      )
                  (     0          0         -1      )

 cart.    s( 3) = ( -1.0000000 -0.0000002  0.0000000 )
                  (  0.0000000  1.0000000  0.0000000 )
                  (  0.0000000  0.0000000 -1.0000000 )


      isym =  4     180 deg rotation - cart. axis [1,0,0]        

 cryst.   s( 4) = (     1          0          0      )
                  (    -1         -1          0      )
                  (     0          0         -1      )

 cart.    s( 4) = (  1.0000000  0.0000002  0.0000000 )
                  (  0.0000000 -1.0000000  0.0000000 )
                  (  0.0000000  0.0000000 -1.0000000 )


      isym =  5      60 deg rotation - cryst. axis [0,0,1]       

 cryst.   s( 5) = (     1          1          0      )
                  (    -1          0          0      )
                  (     0          0          1      )

 cart.    s( 5) = (  0.4999999 -0.8660254  0.0000000 )
                  (  0.8660254  0.5000001  0.0000000 )
                  (  0.0000000  0.0000000  1.0000000 )


      isym =  6      60 deg rotation - cryst. axis [0,0,-1]      

 cryst.   s( 6) = (     0         -1          0      )
                  (     1          1          0      )
                  (     0          0          1      )

 cart.    s( 6) = (  0.5000001  0.8660254  0.0000000 )
                  ( -0.8660254  0.4999999  0.0000000 )
                  (  0.0000000  0.0000000  1.0000000 )


      isym =  7     120 deg rotation - cryst. axis [0,0,1]       

 cryst.   s( 7) = (     0          1          0      )
                  (    -1         -1          0      )
                  (     0          0          1      )

 cart.    s( 7) = ( -0.5000001 -0.8660254  0.0000000 )
                  (  0.8660254 -0.4999999  0.0000000 )
                  (  0.0000000  0.0000000  1.0000000 )


      isym =  8     120 deg rotation - cryst. axis [0,0,-1]      

 cryst.   s( 8) = (    -1         -1          0      )
                  (     1          0          0      )
                  (     0          0          1      )

 cart.    s( 8) = ( -0.4999999  0.8660254  0.0000000 )
                  ( -0.8660254 -0.5000001  0.0000000 )
                  (  0.0000000  0.0000000  1.0000000 )


      isym =  9     180 deg rotation - cryst. axis [1,-1,0]      

 cryst.   s( 9) = (     0         -1          0      )
                  (    -1          0          0      )
                  (     0          0         -1      )

 cart.    s( 9) = (  0.5000001 -0.8660254  0.0000000 )
                  ( -0.8660254 -0.5000001  0.0000000 )
                  (  0.0000000  0.0000000 -1.0000000 )


      isym = 10     180 deg rotation - cryst. axis [2,1,0]       

 cryst.   s(10) = (     1          1          0      )
                  (     0         -1          0      )
                  (     0          0         -1      )

 cart.    s(10) = (  0.4999999  0.8660255  0.0000000 )
                  (  0.8660254 -0.4999999  0.0000000 )
                  (  0.0000000  0.0000000 -1.0000000 )


      isym = 11     180 deg rotation - cryst. axis [0,1,0]       

 cryst.   s(11) = (    -1         -1          0      )
                  (     0          1          0      )
                  (     0          0         -1      )

 cart.    s(11) = ( -0.4999999 -0.8660255  0.0000000 )
                  ( -0.8660254  0.4999999  0.0000000 )
                  (  0.0000000  0.0000000 -1.0000000 )


      isym = 12     180 deg rotation - cryst. axis [1,1,0]       

 cryst.   s(12) = (     0          1          0      )
                  (     1          0          0      )
                  (     0          0         -1      )

 cart.    s(12) = ( -0.5000001  0.8660254  0.0000000 )
                  (  0.8660254  0.5000001  0.0000000 )
                  (  0.0000000  0.0000000 -1.0000000 )


      isym = 13     inversion                                    

 cryst.   s(13) = (    -1          0          0      )
                  (     0         -1          0      )
                  (     0          0         -1      )

 cart.    s(13) = ( -1.0000000 -0.0000000  0.0000000 )
                  (  0.0000000 -1.0000000  0.0000000 )
                  (  0.0000000  0.0000000 -1.0000000 )


      isym = 14     inv. 180 deg rotation - cart. axis [0,0,1]   

 cryst.   s(14) = (     1          0          0      )
                  (     0          1          0      )
                  (     0          0         -1      )

 cart.    s(14) = (  1.0000000  0.0000000  0.0000000 )
                  (  0.0000000  1.0000000  0.0000000 )
                  (  0.0000000  0.0000000 -1.0000000 )


      isym = 15     inv. 180 deg rotation - cart. axis [0,1,0]   

 cryst.   s(15) = (     1          0          0      )
                  (    -1         -1          0      )
                  (     0          0          1      )

 cart.    s(15) = (  1.0000000  0.0000002  0.0000000 )
                  (  0.0000000 -1.0000000  0.0000000 )
                  (  0.0000000  0.0000000  1.0000000 )


      isym = 16     inv. 180 deg rotation - cart. axis [1,0,0]   

 cryst.   s(16) = (    -1          0          0      )
                  (     1          1          0      )
                  (     0          0          1      )

 cart.    s(16) = ( -1.0000000 -0.0000002  0.0000000 )
                  (  0.0000000  1.0000000  0.0000000 )
                  (  0.0000000  0.0000000  1.0000000 )


      isym = 17     inv.  60 deg rotation - cryst. axis [0,0,1]  

 cryst.   s(17) = (    -1         -1          0      )
                  (     1          0          0      )
                  (     0          0         -1      )

 cart.    s(17) = ( -0.4999999  0.8660254  0.0000000 )
                  ( -0.8660254 -0.5000001  0.0000000 )
                  (  0.0000000  0.0000000 -1.0000000 )


      isym = 18     inv.  60 deg rotation - cryst. axis [0,0,-1] 

 cryst.   s(18) = (     0          1          0      )
                  (    -1         -1          0      )
                  (     0          0         -1      )

 cart.    s(18) = ( -0.5000001 -0.8660254  0.0000000 )
                  (  0.8660254 -0.4999999  0.0000000 )
                  (  0.0000000  0.0000000 -1.0000000 )


      isym = 19     inv. 120 deg rotation - cryst. axis [0,0,1]  

 cryst.   s(19) = (     0         -1          0      )
                  (     1          1          0      )
                  (     0          0         -1      )

 cart.    s(19) = (  0.5000001  0.8660254  0.0000000 )
                  ( -0.8660254  0.4999999  0.0000000 )
                  (  0.0000000  0.0000000 -1.0000000 )


      isym = 20     inv. 120 deg rotation - cryst. axis [0,0,-1] 

 cryst.   s(20) = (     1          1          0      )
                  (    -1          0          0      )
                  (     0          0         -1      )

 cart.    s(20) = (  0.4999999 -0.8660254  0.0000000 )
                  (  0.8660254  0.5000001  0.0000000 )
                  (  0.0000000  0.0000000 -1.0000000 )


      isym = 21     inv. 180 deg rotation - cryst. axis [1,-1,0] 

 cryst.   s(21) = (     0          1          0      )
                  (     1          0          0      )
                  (     0          0          1      )

 cart.    s(21) = ( -0.5000001  0.8660254  0.0000000 )
                  (  0.8660254  0.5000001  0.0000000 )
                  (  0.0000000  0.0000000  1.0000000 )


      isym = 22     inv. 180 deg rotation - cryst. axis [2,1,0]  

 cryst.   s(22) = (    -1         -1          0      )
                  (     0          1          0      )
                  (     0          0          1      )

 cart.    s(22) = ( -0.4999999 -0.8660255  0.0000000 )
                  ( -0.8660254  0.4999999  0.0000000 )
                  (  0.0000000  0.0000000  1.0000000 )


      isym = 23     inv. 180 deg rotation - cryst. axis [0,1,0]  

 cryst.   s(23) = (     1          1          0      )
                  (     0         -1          0      )
                  (     0          0          1      )

 cart.    s(23) = (  0.4999999  0.8660255  0.0000000 )
                  (  0.8660254 -0.4999999  0.0000000 )
                  (  0.0000000  0.0000000  1.0000000 )


      isym = 24     inv. 180 deg rotation - cryst. axis [1,1,0]  

 cryst.   s(24) = (     0         -1          0      )
                  (    -1          0          0      )
                  (     0          0          1      )

 cart.    s(24) = (  0.5000001 -0.8660254  0.0000000 )
                  ( -0.8660254 -0.5000001  0.0000000 )
                  (  0.0000000  0.0000000  1.0000000 )


   Cartesian axes

     site n.     atom                  positions (alat units)
         1           Ba  tau(   1) = (   0.0000000   0.0000000   0.0000000  )
         2           Al  tau(   2) = (   0.5000000   0.0000000   0.0000000  )
         3           Al  tau(   3) = (   0.2500000   0.4330127   0.0000000  )
         4           Al  tau(   4) = (  -0.2500000   0.4330127   0.0000000  )
         5           Al  tau(   5) = (   0.0000005   0.3754367   0.2466528  )
         6           Al  tau(   6) = (   0.6748615   0.1877188   0.2466528  )
         7           Al  tau(   7) = (   0.3251375   0.1877188   0.2466528  )
         8           Al  tau(   8) = (   0.1748624   0.6783066   0.2466528  )
         9           Al  tau(   9) = (  -0.1748616   0.6783066   0.2466528  )
        10           Al  tau(  10) = (   0.4999995   0.4905886   0.2466528  )
        11           Fe  tau(  11) = (   0.5000005   0.2886748   0.0000000  )
        12           Fe  tau(  12) = (  -0.0000005   0.5773505   0.0000000  )

   Crystallographic axes

     site n.     atom                  positions (cryst. coord.)
         1           Ba  tau(   1) = (  0.0000000  0.0000000  0.0000000  )
         2           Al  tau(   2) = (  0.5000000  0.0000000  0.0000000  )
         3           Al  tau(   3) = (  0.5000000  0.5000000  0.0000000  )
         4           Al  tau(   4) = (  0.0000000  0.5000000  0.0000000  )
         5           Al  tau(   5) = (  0.2167590  0.4335170  0.5000000  )
         6           Al  tau(   6) = (  0.7832410  0.2167590  0.5000000  )
         7           Al  tau(   7) = (  0.4335170  0.2167590  0.5000000  )
         8           Al  tau(   8) = (  0.5664830  0.7832410  0.5000000  )
         9           Al  tau(   9) = (  0.2167590  0.7832410  0.5000000  )
        10           Al  tau(  10) = (  0.7832410  0.5664830  0.5000000  )
        11           Fe  tau(  11) = (  0.6666670  0.3333330  0.0000000  )
        12           Fe  tau(  12) = (  0.3333330  0.6666670  0.0000000  )

     number of k points=     1  Methfessel-Paxton smearing, width (Ry)=  0.0010
                       cart. coord. in units 2pi/alat
        k(    1) = (   0.0000000   0.0000000   0.0000000), wk =   2.0000000

                       cryst. coord.
        k(    1) = (   0.0000000   0.0000000   0.0000000), wk =   2.0000000

     Dense  grid:    46519 G-vectors     FFT dimensions: (  75,  75,  40)

     Smooth grid:    16409 G-vectors     FFT dimensions: (  54,  54,  27)

     Dynamical RAM for                 wfc:       1.32 MB

     Dynamical RAM for     wfc (w. buffer):       1.32 MB

     Dynamical RAM for           str. fact:       2.13 MB

     Dynamical RAM for           local pot:       0.00 MB

     Dynamical RAM for          nlocal pot:       6.80 MB

     Dynamical RAM for                qrad:       4.98 MB

     Dynamical RAM for          rho,v,vnew:       7.28 MB

     Dynamical RAM for               rhoin:       2.43 MB

     Dynamical RAM for            rho*nmix:      11.36 MB

     Dynamical RAM for           G-vectors:       2.79 MB

     Dynamical RAM for          h,s,v(r/c):       0.16 MB

     Dynamical RAM for          <psi|beta>:       0.07 MB

     Dynamical RAM for                 psi:       2.63 MB

     Dynamical RAM for                hpsi:       2.63 MB

     Dynamical RAM for                spsi:       2.63 MB

     Dynamical RAM for      wfcinit/wfcrot:       4.30 MB

     Dynamical RAM for           addusdens:     151.90 MB

     Dynamical RAM for          addusforce:     163.65 MB

     Dynamical RAM for         addusstress:     156.16 MB

     Estimated static dynamical RAM per process >      39.13 MB

     Estimated max dynamical RAM per process >     214.15 MB

     Check: negative core charge=   -0.000049

     Initial potential from superposition of free atoms

     starting charge      68.9615, renormalised to      69.0000
     Starting wfcs are   67 randomized atomic wfcs
     Checking if some PAW data can be deallocated... 

     total cpu time spent up to now is        7.0 secs

     Self-consistent Calculation

     iteration #  1     ecut=    30.00 Ry     beta= 0.70
     Davidson diagonalization with overlap

---- Real-time Memory Report at c_bands before calling an iterative solver
           510 MiB given to the printing process from OS
             0 MiB allocation reported by mallinfo(arena+hblkhd)
        118650 MiB available memory on the node where the printing process lives
------------------
     ethr =  1.00E-02,  avg # of iterations =  5.0

     total cpu time spent up to now is        8.7 secs

     total energy              =   -1445.51928767 Ry
     estimated scf accuracy    <       4.77324076 Ry

     iteration #  2     ecut=    30.00 Ry     beta= 0.70
     Davidson diagonalization with overlap

---- Real-time Memory Report at c_bands before calling an iterative solver
           550 MiB given to the printing process from OS
             0 MiB allocation reported by mallinfo(arena+hblkhd)
        118637 MiB available memory on the node where the printing process lives
------------------
     ethr =  6.92E-03,  avg # of iterations =  9.0

     total cpu time spent up to now is       10.8 secs

     total energy              =   -1443.31607446 Ry
     estimated scf accuracy    <     109.55520529 Ry

     iteration #  3     ecut=    30.00 Ry     beta= 0.70
     Davidson diagonalization with overlap

---- Real-time Memory Report at c_bands before calling an iterative solver
           554 MiB given to the printing process from OS
             0 MiB allocation reported by mallinfo(arena+hblkhd)
        118632 MiB available memory on the node where the printing process lives
------------------
     ethr =  6.92E-03,  avg # of iterations =  6.0

     total cpu time spent up to now is       12.7 secs

     total energy              =   -1448.64032047 Ry
     estimated scf accuracy    <       6.20336407 Ry

     iteration #  4     ecut=    30.00 Ry     beta= 0.70
     Davidson diagonalization with overlap

---- Real-time Memory Report at c_bands before calling an iterative solver
           557 MiB given to the printing process from OS
             0 MiB allocation reported by mallinfo(arena+hblkhd)
        118635 MiB available memory on the node where the printing process lives
------------------
     ethr =  6.92E-03,  avg # of iterations =  2.0

     total cpu time spent up to now is       14.3 secs

     total energy              =   -1448.83781027 Ry
     estimated scf accuracy    <       0.76718104 Ry

     iteration #  5     ecut=    30.00 Ry     beta= 0.70
     Davidson diagonalization with overlap

---- Real-time Memory Report at c_bands before calling an iterative solver
           557 MiB given to the printing process from OS
             0 MiB allocation reported by mallinfo(arena+hblkhd)
        118636 MiB available memory on the node where the printing process lives
------------------
     ethr =  1.11E-03,  avg # of iterations =  6.0

     total cpu time spent up to now is       16.0 secs

     total energy              =   -1449.04138164 Ry
     estimated scf accuracy    <       1.04509366 Ry

     iteration #  6     ecut=    30.00 Ry     beta= 0.70
     Davidson diagonalization with overlap

---- Real-time Memory Report at c_bands before calling an iterative solver
           557 MiB given to the printing process from OS
             0 MiB allocation reported by mallinfo(arena+hblkhd)
        118638 MiB available memory on the node where the printing process lives
------------------
     ethr =  1.11E-03,  avg # of iterations =  2.0

     total cpu time spent up to now is       17.6 secs

     total energy              =   -1449.09382429 Ry
     estimated scf accuracy    <       0.50723263 Ry

     iteration #  7     ecut=    30.00 Ry     beta= 0.70
     Davidson diagonalization with overlap

---- Real-time Memory Report at c_bands before calling an iterative solver
           557 MiB given to the printing process from OS
             0 MiB allocation reported by mallinfo(arena+hblkhd)
        118633 MiB available memory on the node where the printing process lives
------------------
     ethr =  7.35E-04,  avg # of iterations =  1.0

     total cpu time spent up to now is       19.2 secs

     total energy              =   -1449.09437284 Ry
     estimated scf accuracy    <       0.26355449 Ry

     iteration #  8     ecut=    30.00 Ry     beta= 0.70
     Davidson diagonalization with overlap

---- Real-time Memory Report at c_bands before calling an iterative solver
           557 MiB given to the printing process from OS
             0 MiB allocation reported by mallinfo(arena+hblkhd)
        118639 MiB available memory on the node where the printing process lives
------------------
     ethr =  3.82E-04,  avg # of iterations =  2.0

     total cpu time spent up to now is       20.7 secs

     total energy              =   -1449.07565950 Ry
     estimated scf accuracy    <       0.16630625 Ry

     iteration #  9     ecut=    30.00 Ry     beta= 0.70
     Davidson diagonalization with overlap

---- Real-time Memory Report at c_bands before calling an iterative solver
           557 MiB given to the printing process from OS
             0 MiB allocation reported by mallinfo(arena+hblkhd)
        118638 MiB available memory on the node where the printing process lives
------------------
     ethr =  2.41E-04,  avg # of iterations =  2.0

     total cpu time spent up to now is       22.3 secs

     total energy              =   -1449.07801668 Ry
     estimated scf accuracy    <       0.05392304 Ry

     iteration # 10     ecut=    30.00 Ry     beta= 0.70
     Davidson diagonalization with overlap

---- Real-time Memory Report at c_bands before calling an iterative solver
           560 MiB given to the printing process from OS
             0 MiB allocation reported by mallinfo(arena+hblkhd)
        118640 MiB available memory on the node where the printing process lives
------------------
     ethr =  7.81E-05,  avg # of iterations =  9.0

     total cpu time spent up to now is       24.1 secs

     total energy              =   -1449.08144672 Ry
     estimated scf accuracy    <       0.03638771 Ry

     iteration # 11     ecut=    30.00 Ry     beta= 0.70
     Davidson diagonalization with overlap

---- Real-time Memory Report at c_bands before calling an iterative solver
           560 MiB given to the printing process from OS
             0 MiB allocation reported by mallinfo(arena+hblkhd)
        118642 MiB available memory on the node where the printing process lives
------------------
     ethr =  5.27E-05,  avg # of iterations =  2.0

     total cpu time spent up to now is       25.7 secs

     total energy              =   -1449.08154672 Ry
     estimated scf accuracy    <       0.01725505 Ry

     iteration # 12     ecut=    30.00 Ry     beta= 0.70
     Davidson diagonalization with overlap

---- Real-time Memory Report at c_bands before calling an iterative solver
           560 MiB given to the printing process from OS
             0 MiB allocation reported by mallinfo(arena+hblkhd)
        118639 MiB available memory on the node where the printing process lives
------------------
     ethr =  2.50E-05,  avg # of iterations =  2.0

     total cpu time spent up to now is       27.3 secs

     total energy              =   -1449.08109100 Ry
     estimated scf accuracy    <       0.01763759 Ry

     iteration # 13     ecut=    30.00 Ry     beta= 0.70
     Davidson diagonalization with overlap

---- Real-time Memory Report at c_bands before calling an iterative solver
           560 MiB given to the printing process from OS
             0 MiB allocation reported by mallinfo(arena+hblkhd)
        118641 MiB available memory on the node where the printing process lives
------------------
     ethr =  2.50E-05,  avg # of iterations =  2.0

     total cpu time spent up to now is       28.9 secs

     total energy              =   -1449.08076018 Ry
     estimated scf accuracy    <       0.01633210 Ry

     iteration # 14     ecut=    30.00 Ry     beta= 0.70
     Davidson diagonalization with overlap

---- Real-time Memory Report at c_bands before calling an iterative solver
           560 MiB given to the printing process from OS
             0 MiB allocation reported by mallinfo(arena+hblkhd)
        118643 MiB available memory on the node where the printing process lives
------------------
     ethr =  2.37E-05,  avg # of iterations =  2.0

     total cpu time spent up to now is       30.5 secs

     total energy              =   -1449.08137175 Ry
     estimated scf accuracy    <       0.01630037 Ry

     iteration # 15     ecut=    30.00 Ry     beta= 0.70
     Davidson diagonalization with overlap

---- Real-time Memory Report at c_bands before calling an iterative solver
           560 MiB given to the printing process from OS
             0 MiB allocation reported by mallinfo(arena+hblkhd)
        118643 MiB available memory on the node where the printing process lives
------------------
     ethr =  2.36E-05,  avg # of iterations =  2.0

     total cpu time spent up to now is       32.1 secs

     total energy              =   -1449.08212357 Ry
     estimated scf accuracy    <       0.01053617 Ry

     iteration # 16     ecut=    30.00 Ry     beta= 0.70
     Davidson diagonalization with overlap

---- Real-time Memory Report at c_bands before calling an iterative solver
           560 MiB given to the printing process from OS
             0 MiB allocation reported by mallinfo(arena+hblkhd)
        118645 MiB available memory on the node where the printing process lives
------------------
     ethr =  1.53E-05,  avg # of iterations =  2.0

     total cpu time spent up to now is       33.7 secs

     total energy              =   -1449.08220163 Ry
     estimated scf accuracy    <       0.00542224 Ry

     iteration # 17     ecut=    30.00 Ry     beta= 0.70
     Davidson diagonalization with overlap

---- Real-time Memory Report at c_bands before calling an iterative solver
           560 MiB given to the printing process from OS
             0 MiB allocation reported by mallinfo(arena+hblkhd)
        118646 MiB available memory on the node where the printing process lives
------------------
     ethr =  7.86E-06,  avg # of iterations =  2.0

     total cpu time spent up to now is       35.3 secs

     total energy              =   -1449.08198470 Ry
     estimated scf accuracy    <       0.00902556 Ry

     iteration # 18     ecut=    30.00 Ry     beta= 0.70
     Davidson diagonalization with overlap

---- Real-time Memory Report at c_bands before calling an iterative solver
           560 MiB given to the printing process from OS
             0 MiB allocation reported by mallinfo(arena+hblkhd)
        118648 MiB available memory on the node where the printing process lives
------------------
     ethr =  7.86E-06,  avg # of iterations =  3.0

     total cpu time spent up to now is       36.9 secs

     total energy              =   -1449.08157163 Ry
     estimated scf accuracy    <       0.00988914 Ry

     iteration # 19     ecut=    30.00 Ry     beta= 0.70
     Davidson diagonalization with overlap

---- Real-time Memory Report at c_bands before calling an iterative solver
           560 MiB given to the printing process from OS
             0 MiB allocation reported by mallinfo(arena+hblkhd)
        118645 MiB available memory on the node where the printing process lives
------------------
     ethr =  7.86E-06,  avg # of iterations =  1.0

     total cpu time spent up to now is       38.5 secs

     total energy              =   -1449.08152786 Ry
     estimated scf accuracy    <       0.00691101 Ry

     iteration # 20     ecut=    30.00 Ry     beta= 0.70
     Davidson diagonalization with overlap

---- Real-time Memory Report at c_bands before calling an iterative solver
           560 MiB given to the printing process from OS
             0 MiB allocation reported by mallinfo(arena+hblkhd)
        118648 MiB available memory on the node where the printing process lives
------------------
     ethr =  7.86E-06,  avg # of iterations =  1.0

     total cpu time spent up to now is       40.1 secs

     total energy              =   -1449.08132340 Ry
     estimated scf accuracy    <       0.00878234 Ry

     iteration # 21     ecut=    30.00 Ry     beta= 0.70
     Davidson diagonalization with overlap

---- Real-time Memory Report at c_bands before calling an iterative solver
           560 MiB given to the printing process from OS
             0 MiB allocation reported by mallinfo(arena+hblkhd)
        118647 MiB available memory on the node where the printing process lives
------------------
     ethr =  7.86E-06,  avg # of iterations =  2.0

     total cpu time spent up to now is       41.7 secs

     total energy              =   -1449.08186552 Ry
     estimated scf accuracy    <       0.00421797 Ry

     iteration # 22     ecut=    30.00 Ry     beta= 0.70
     Davidson diagonalization with overlap

---- Real-time Memory Report at c_bands before calling an iterative solver
           560 MiB given to the printing process from OS
             0 MiB allocation reported by mallinfo(arena+hblkhd)
        118644 MiB available memory on the node where the printing process lives
------------------
     ethr =  6.11E-06,  avg # of iterations =  2.0

     total cpu time spent up to now is       43.3 secs

     total energy              =   -1449.08199858 Ry
     estimated scf accuracy    <       0.00498090 Ry

     iteration # 23     ecut=    30.00 Ry     beta= 0.70
     Davidson diagonalization with overlap

---- Real-time Memory Report at c_bands before calling an iterative solver
           560 MiB given to the printing process from OS
             0 MiB allocation reported by mallinfo(arena+hblkhd)
        118648 MiB available memory on the node where the printing process lives
------------------
     ethr =  6.11E-06,  avg # of iterations =  4.0

     total cpu time spent up to now is       45.0 secs

     total energy              =   -1449.08211911 Ry
     estimated scf accuracy    <       0.01320651 Ry

     iteration # 24     ecut=    30.00 Ry     beta= 0.70
     Davidson diagonalization with overlap

---- Real-time Memory Report at c_bands before calling an iterative solver
           561 MiB given to the printing process from OS
             0 MiB allocation reported by mallinfo(arena+hblkhd)
        118649 MiB available memory on the node where the printing process lives
------------------
     ethr =  6.11E-06,  avg # of iterations =  5.0

     total cpu time spent up to now is       46.6 secs

     total energy              =   -1449.08171946 Ry
     estimated scf accuracy    <       0.00989064 Ry

     iteration # 25     ecut=    30.00 Ry     beta= 0.70
     Davidson diagonalization with overlap

---- Real-time Memory Report at c_bands before calling an iterative solver
           561 MiB given to the printing process from OS
             0 MiB allocation reported by mallinfo(arena+hblkhd)
        118642 MiB available memory on the node where the printing process lives
------------------
     ethr =  6.11E-06,  avg # of iterations =  4.0

     total cpu time spent up to now is       48.3 secs

     total energy              =   -1449.08043481 Ry
     estimated scf accuracy    <       0.01904777 Ry

     iteration # 26     ecut=    30.00 Ry     beta= 0.70
     Davidson diagonalization with overlap

---- Real-time Memory Report at c_bands before calling an iterative solver
           561 MiB given to the printing process from OS
             0 MiB allocation reported by mallinfo(arena+hblkhd)
        118651 MiB available memory on the node where the printing process lives
------------------
     ethr =  6.11E-06,  avg # of iterations =  3.0

     total cpu time spent up to now is       50.0 secs

     total energy              =   -1449.08101578 Ry
     estimated scf accuracy    <       0.01838166 Ry

     iteration # 27     ecut=    30.00 Ry     beta= 0.70
     Davidson diagonalization with overlap

---- Real-time Memory Report at c_bands before calling an iterative solver
           561 MiB given to the printing process from OS
             0 MiB allocation reported by mallinfo(arena+hblkhd)
        118650 MiB available memory on the node where the printing process lives
------------------
     ethr =  6.11E-06,  avg # of iterations =  4.0

     total cpu time spent up to now is       51.6 secs

     total energy              =   -1449.08155738 Ry
     estimated scf accuracy    <       0.00802637 Ry

     iteration # 28     ecut=    30.00 Ry     beta= 0.70
     Davidson diagonalization with overlap

---- Real-time Memory Report at c_bands before calling an iterative solver
           561 MiB given to the printing process from OS
             0 MiB allocation reported by mallinfo(arena+hblkhd)
        118643 MiB available memory on the node where the printing process lives
------------------
     ethr =  6.11E-06,  avg # of iterations =  1.0

     total cpu time spent up to now is       53.2 secs

     total energy              =   -1449.08123878 Ry
     estimated scf accuracy    <       0.00646520 Ry

     iteration # 29     ecut=    30.00 Ry     beta= 0.70
     Davidson diagonalization with overlap

---- Real-time Memory Report at c_bands before calling an iterative solver
           561 MiB given to the printing process from OS
             0 MiB allocation reported by mallinfo(arena+hblkhd)
        118649 MiB available memory on the node where the printing process lives
------------------
     ethr =  6.11E-06,  avg # of iterations =  1.0

     total cpu time spent up to now is       54.7 secs

     total energy              =   -1449.08068650 Ry
     estimated scf accuracy    <       0.00993962 Ry

     iteration # 30     ecut=    30.00 Ry     beta= 0.70
     Davidson diagonalization with overlap

---- Real-time Memory Report at c_bands before calling an iterative solver
           561 MiB given to the printing process from OS
             0 MiB allocation reported by mallinfo(arena+hblkhd)
        118622 MiB available memory on the node where the printing process lives
------------------
     ethr =  6.11E-06,  avg # of iterations =  1.0

     total cpu time spent up to now is       57.3 secs

     total energy              =   -1449.08106641 Ry
     estimated scf accuracy    <       0.00953578 Ry

     iteration # 31     ecut=    30.00 Ry     beta= 0.70
     Davidson diagonalization with overlap

---- Real-time Memory Report at c_bands before calling an iterative solver
           561 MiB given to the printing process from OS
             0 MiB allocation reported by mallinfo(arena+hblkhd)
        118604 MiB available memory on the node where the printing process lives
------------------
     ethr =  6.11E-06,  avg # of iterations =  2.0

     total cpu time spent up to now is       59.4 secs

     total energy              =   -1449.08020088 Ry
     estimated scf accuracy    <       0.01401170 Ry

     iteration # 32     ecut=    30.00 Ry     beta= 0.70
     Davidson diagonalization with overlap

---- Real-time Memory Report at c_bands before calling an iterative solver
           561 MiB given to the printing process from OS
             0 MiB allocation reported by mallinfo(arena+hblkhd)
        118614 MiB available memory on the node where the printing process lives
------------------
     ethr =  6.11E-06,  avg # of iterations =  4.0

     total cpu time spent up to now is       61.4 secs

     total energy              =   -1449.08052127 Ry
     estimated scf accuracy    <       0.01436067 Ry

     iteration # 33     ecut=    30.00 Ry     beta= 0.70
     Davidson diagonalization with overlap

---- Real-time Memory Report at c_bands before calling an iterative solver
           561 MiB given to the printing process from OS
             0 MiB allocation reported by mallinfo(arena+hblkhd)
        118612 MiB available memory on the node where the printing process lives
------------------
     ethr =  6.11E-06,  avg # of iterations =  4.0

     total cpu time spent up to now is       63.4 secs

     total energy              =   -1449.08040328 Ry
     estimated scf accuracy    <       0.09751804 Ry

     iteration # 34     ecut=    30.00 Ry     beta= 0.70
     Davidson diagonalization with overlap

---- Real-time Memory Report at c_bands before calling an iterative solver
           561 MiB given to the printing process from OS
             0 MiB allocation reported by mallinfo(arena+hblkhd)
        118611 MiB available memory on the node where the printing process lives
------------------
     ethr =  6.11E-06,  avg # of iterations =  5.0

     total cpu time spent up to now is       65.3 secs

     total energy              =   -1449.07828120 Ry
     estimated scf accuracy    <       0.09551422 Ry

     iteration # 35     ecut=    30.00 Ry     beta= 0.70
     Davidson diagonalization with overlap

---- Real-time Memory Report at c_bands before calling an iterative solver
           561 MiB given to the printing process from OS
             0 MiB allocation reported by mallinfo(arena+hblkhd)
        118613 MiB available memory on the node where the printing process lives
------------------
     ethr =  6.11E-06,  avg # of iterations =  4.0

     total cpu time spent up to now is       67.3 secs

     total energy              =   -1449.08005182 Ry
     estimated scf accuracy    <       0.04277459 Ry

     iteration # 36     ecut=    30.00 Ry     beta= 0.70
     Davidson diagonalization with overlap

---- Real-time Memory Report at c_bands before calling an iterative solver
           561 MiB given to the printing process from OS
             0 MiB allocation reported by mallinfo(arena+hblkhd)
        118610 MiB available memory on the node where the printing process lives
------------------
     ethr =  6.11E-06,  avg # of iterations =  5.0

     total cpu time spent up to now is       69.2 secs

     total energy              =   -1449.08096256 Ry
     estimated scf accuracy    <       0.01829922 Ry

     iteration # 37     ecut=    30.00 Ry     beta= 0.70
     Davidson diagonalization with overlap

---- Real-time Memory Report at c_bands before calling an iterative solver
           561 MiB given to the printing process from OS
             0 MiB allocation reported by mallinfo(arena+hblkhd)
        118616 MiB available memory on the node where the printing process lives
------------------
     ethr =  6.11E-06,  avg # of iterations =  4.0

     total cpu time spent up to now is       71.0 secs

     total energy              =   -1449.08182185 Ry
     estimated scf accuracy    <       0.00741452 Ry

     iteration # 38     ecut=    30.00 Ry     beta= 0.70
     Davidson diagonalization with overlap

---- Real-time Memory Report at c_bands before calling an iterative solver
           561 MiB given to the printing process from OS
             0 MiB allocation reported by mallinfo(arena+hblkhd)
        118615 MiB available memory on the node where the printing process lives
------------------
     ethr =  6.11E-06,  avg # of iterations =  3.0

     total cpu time spent up to now is       72.9 secs

     total energy              =   -1449.08142802 Ry
     estimated scf accuracy    <       0.00799160 Ry

     iteration # 39     ecut=    30.00 Ry     beta= 0.70
     Davidson diagonalization with overlap

---- Real-time Memory Report at c_bands before calling an iterative solver
           561 MiB given to the printing process from OS
             0 MiB allocation reported by mallinfo(arena+hblkhd)
        118612 MiB available memory on the node where the printing process lives
------------------
     ethr =  6.11E-06,  avg # of iterations =  2.0

     total cpu time spent up to now is       74.7 secs

     total energy              =   -1449.08089466 Ry
     estimated scf accuracy    <       0.01111653 Ry

     iteration # 40     ecut=    30.00 Ry     beta= 0.70
     Davidson diagonalization with overlap

---- Real-time Memory Report at c_bands before calling an iterative solver
           561 MiB given to the printing process from OS
             0 MiB allocation reported by mallinfo(arena+hblkhd)
        118611 MiB available memory on the node where the printing process lives
------------------
     ethr =  6.11E-06,  avg # of iterations =  4.0

     total cpu time spent up to now is       76.6 secs

     total energy              =   -1449.08021830 Ry
     estimated scf accuracy    <       0.02004994 Ry

     iteration # 41     ecut=    30.00 Ry     beta= 0.70
     Davidson diagonalization with overlap

---- Real-time Memory Report at c_bands before calling an iterative solver
           561 MiB given to the printing process from OS
             0 MiB allocation reported by mallinfo(arena+hblkhd)
        118616 MiB available memory on the node where the printing process lives
------------------
     ethr =  6.11E-06,  avg # of iterations =  4.0

     total cpu time spent up to now is       78.5 secs

     total energy              =   -1449.08072963 Ry
     estimated scf accuracy    <       0.02082284 Ry

     iteration # 42     ecut=    30.00 Ry     beta= 0.70
     Davidson diagonalization with overlap

---- Real-time Memory Report at c_bands before calling an iterative solver
           561 MiB given to the printing process from OS
             0 MiB allocation reported by mallinfo(arena+hblkhd)
        118619 MiB available memory on the node where the printing process lives
------------------
     ethr =  6.11E-06,  avg # of iterations =  3.0

     total cpu time spent up to now is       80.4 secs

     total energy              =   -1449.08110159 Ry
     estimated scf accuracy    <       0.01168637 Ry

     iteration # 43     ecut=    30.00 Ry     beta= 0.70
     Davidson diagonalization with overlap

---- Real-time Memory Report at c_bands before calling an iterative solver
           561 MiB given to the printing process from OS
             0 MiB allocation reported by mallinfo(arena+hblkhd)
        118619 MiB available memory on the node where the printing process lives
------------------
     ethr =  6.11E-06,  avg # of iterations =  5.0

     total cpu time spent up to now is       82.2 secs

     total energy              =   -1449.08119130 Ry
     estimated scf accuracy    <       0.02468507 Ry

     iteration # 44     ecut=    30.00 Ry     beta= 0.70
     Davidson diagonalization with overlap

---- Real-time Memory Report at c_bands before calling an iterative solver
           561 MiB given to the printing process from OS
             0 MiB allocation reported by mallinfo(arena+hblkhd)
        118620 MiB available memory on the node where the printing process lives
------------------
     ethr =  6.11E-06,  avg # of iterations =  5.0

     total cpu time spent up to now is       84.0 secs

     total energy              =   -1449.08144289 Ry
     estimated scf accuracy    <       0.00883229 Ry

     iteration # 45     ecut=    30.00 Ry     beta= 0.70
     Davidson diagonalization with overlap

---- Real-time Memory Report at c_bands before calling an iterative solver
           561 MiB given to the printing process from OS
             0 MiB allocation reported by mallinfo(arena+hblkhd)
        118621 MiB available memory on the node where the printing process lives
------------------
     ethr =  6.11E-06,  avg # of iterations =  1.0

     total cpu time spent up to now is       85.8 secs

     total energy              =   -1449.08147683 Ry
     estimated scf accuracy    <       0.00572722 Ry

     iteration # 46     ecut=    30.00 Ry     beta= 0.70
     Davidson diagonalization with overlap

---- Real-time Memory Report at c_bands before calling an iterative solver
           561 MiB given to the printing process from OS
             0 MiB allocation reported by mallinfo(arena+hblkhd)
        118620 MiB available memory on the node where the printing process lives
------------------
     ethr =  6.11E-06,  avg # of iterations =  1.0

     total cpu time spent up to now is       87.6 secs

     total energy              =   -1449.08194837 Ry
     estimated scf accuracy    <       0.00541835 Ry

     iteration # 47     ecut=    30.00 Ry     beta= 0.70
     Davidson diagonalization with overlap

---- Real-time Memory Report at c_bands before calling an iterative solver
           561 MiB given to the printing process from OS
             0 MiB allocation reported by mallinfo(arena+hblkhd)
        118621 MiB available memory on the node where the printing process lives
------------------
     ethr =  6.11E-06,  avg # of iterations =  1.0

     total cpu time spent up to now is       89.3 secs

     total energy              =   -1449.08174641 Ry
     estimated scf accuracy    <       0.00559525 Ry

     iteration # 48     ecut=    30.00 Ry     beta= 0.70
     Davidson diagonalization with overlap

---- Real-time Memory Report at c_bands before calling an iterative solver
           561 MiB given to the printing process from OS
             0 MiB allocation reported by mallinfo(arena+hblkhd)
        118623 MiB available memory on the node where the printing process lives
------------------
     ethr =  6.11E-06,  avg # of iterations =  9.0

     total cpu time spent up to now is       91.3 secs

     total energy              =   -1449.08104881 Ry
     estimated scf accuracy    <       0.02270555 Ry

     iteration # 49     ecut=    30.00 Ry     beta= 0.70
     Davidson diagonalization with overlap

---- Real-time Memory Report at c_bands before calling an iterative solver
           561 MiB given to the printing process from OS
             0 MiB allocation reported by mallinfo(arena+hblkhd)
        118623 MiB available memory on the node where the printing process lives
------------------
     ethr =  6.11E-06,  avg # of iterations =  4.0

     total cpu time spent up to now is       93.3 secs

     total energy              =   -1449.07999528 Ry
     estimated scf accuracy    <       0.04041055 Ry

     iteration # 50     ecut=    30.00 Ry     beta= 0.70
     Davidson diagonalization with overlap

---- Real-time Memory Report at c_bands before calling an iterative solver
           561 MiB given to the printing process from OS
             0 MiB allocation reported by mallinfo(arena+hblkhd)
        118623 MiB available memory on the node where the printing process lives
------------------
     ethr =  6.11E-06,  avg # of iterations =  5.0

     total cpu time spent up to now is       95.3 secs

     total energy              =   -1449.08096863 Ry
     estimated scf accuracy    <       0.02663098 Ry

     iteration # 51     ecut=    30.00 Ry     beta= 0.70
     Davidson diagonalization with overlap

---- Real-time Memory Report at c_bands before calling an iterative solver
           561 MiB given to the printing process from OS
             0 MiB allocation reported by mallinfo(arena+hblkhd)
        118624 MiB available memory on the node where the printing process lives
------------------
     ethr =  6.11E-06,  avg # of iterations =  4.0

     total cpu time spent up to now is       97.1 secs

     total energy              =   -1449.08132043 Ry
     estimated scf accuracy    <       0.01311381 Ry

     iteration # 52     ecut=    30.00 Ry     beta= 0.70
     Davidson diagonalization with overlap

---- Real-time Memory Report at c_bands before calling an iterative solver
           561 MiB given to the printing process from OS
             0 MiB allocation reported by mallinfo(arena+hblkhd)
        118649 MiB available memory on the node where the printing process lives
------------------
     ethr =  6.11E-06,  avg # of iterations =  4.0

     total cpu time spent up to now is       98.9 secs

     total energy              =   -1449.08140473 Ry
     estimated scf accuracy    <       0.00875344 Ry

     iteration # 53     ecut=    30.00 Ry     beta= 0.70
     Davidson diagonalization with overlap

---- Real-time Memory Report at c_bands before calling an iterative solver
           561 MiB given to the printing process from OS
             0 MiB allocation reported by mallinfo(arena+hblkhd)
        118647 MiB available memory on the node where the printing process lives
------------------
     ethr =  6.11E-06,  avg # of iterations =  2.0

     total cpu time spent up to now is      100.7 secs

     total energy              =   -1449.08156514 Ry
     estimated scf accuracy    <       0.00578270 Ry

     iteration # 54     ecut=    30.00 Ry     beta= 0.70
     Davidson diagonalization with overlap

---- Real-time Memory Report at c_bands before calling an iterative solver
           561 MiB given to the printing process from OS
             0 MiB allocation reported by mallinfo(arena+hblkhd)
        118642 MiB available memory on the node where the printing process lives
------------------
     ethr =  6.11E-06,  avg # of iterations =  1.0

     total cpu time spent up to now is      102.4 secs

     total energy              =   -1449.08153193 Ry
     estimated scf accuracy    <       0.00530822 Ry

     iteration # 55     ecut=    30.00 Ry     beta= 0.70
     Davidson diagonalization with overlap

---- Real-time Memory Report at c_bands before calling an iterative solver
           561 MiB given to the printing process from OS
             0 MiB allocation reported by mallinfo(arena+hblkhd)
        118646 MiB available memory on the node where the printing process lives
------------------
     ethr =  6.11E-06,  avg # of iterations =  1.0

     total cpu time spent up to now is      104.2 secs

     total energy              =   -1449.08171194 Ry
     estimated scf accuracy    <       0.00513284 Ry

     iteration # 56     ecut=    30.00 Ry     beta= 0.70
     Davidson diagonalization with overlap

---- Real-time Memory Report at c_bands before calling an iterative solver
           561 MiB given to the printing process from OS
             0 MiB allocation reported by mallinfo(arena+hblkhd)
        118648 MiB available memory on the node where the printing process lives
------------------
     ethr =  6.11E-06,  avg # of iterations =  1.0

     total cpu time spent up to now is      106.0 secs

     total energy              =   -1449.08157697 Ry
     estimated scf accuracy    <       0.00612200 Ry

     iteration # 57     ecut=    30.00 Ry     beta= 0.70
     Davidson diagonalization with overlap

---- Real-time Memory Report at c_bands before calling an iterative solver
           561 MiB given to the printing process from OS
             0 MiB allocation reported by mallinfo(arena+hblkhd)
        118646 MiB available memory on the node where the printing process lives
------------------
     ethr =  6.11E-06,  avg # of iterations =  4.0

     total cpu time spent up to now is      108.0 secs

     total energy              =   -1449.07956428 Ry
     estimated scf accuracy    <       0.06389307 Ry

     iteration # 58     ecut=    30.00 Ry     beta= 0.70
     Davidson diagonalization with overlap

---- Real-time Memory Report at c_bands before calling an iterative solver
           561 MiB given to the printing process from OS
             0 MiB allocation reported by mallinfo(arena+hblkhd)
        118647 MiB available memory on the node where the printing process lives
------------------
     ethr =  6.11E-06,  avg # of iterations =  5.0

     total cpu time spent up to now is      109.9 secs

     total energy              =   -1449.08048517 Ry
     estimated scf accuracy    <       0.03673603 Ry

     iteration # 59     ecut=    30.00 Ry     beta= 0.70
     Davidson diagonalization with overlap

---- Real-time Memory Report at c_bands before calling an iterative solver
           561 MiB given to the printing process from OS
             0 MiB allocation reported by mallinfo(arena+hblkhd)
        118646 MiB available memory on the node where the printing process lives
------------------
     ethr =  6.11E-06,  avg # of iterations =  4.0

     total cpu time spent up to now is      111.7 secs

     total energy              =   -1449.08127878 Ry
     estimated scf accuracy    <       0.01172693 Ry

     iteration # 60     ecut=    30.00 Ry     beta= 0.70
     Davidson diagonalization with overlap

---- Real-time Memory Report at c_bands before calling an iterative solver
           561 MiB given to the printing process from OS
             0 MiB allocation reported by mallinfo(arena+hblkhd)
        118645 MiB available memory on the node where the printing process lives
------------------
     ethr =  6.11E-06,  avg # of iterations =  1.0

     total cpu time spent up to now is      113.5 secs

     total energy              =   -1449.08166184 Ry
     estimated scf accuracy    <       0.00839887 Ry

     iteration # 61     ecut=    30.00 Ry     beta= 0.70
     Davidson diagonalization with overlap

---- Real-time Memory Report at c_bands before calling an iterative solver
           561 MiB given to the printing process from OS
             0 MiB allocation reported by mallinfo(arena+hblkhd)
        118649 MiB available memory on the node where the printing process lives
------------------
     ethr =  6.11E-06,  avg # of iterations =  1.0

     total cpu time spent up to now is      115.2 secs

     total energy              =   -1449.08159039 Ry
     estimated scf accuracy    <       0.00604057 Ry

     iteration # 62     ecut=    30.00 Ry     beta= 0.70
     Davidson diagonalization with overlap

---- Real-time Memory Report at c_bands before calling an iterative solver
           561 MiB given to the printing process from OS
             0 MiB allocation reported by mallinfo(arena+hblkhd)
        118650 MiB available memory on the node where the printing process lives
------------------
     ethr =  6.11E-06,  avg # of iterations =  1.0

     total cpu time spent up to now is      117.0 secs

     total energy              =   -1449.08155326 Ry
     estimated scf accuracy    <       0.00571345 Ry

     iteration # 63     ecut=    30.00 Ry     beta= 0.70
     Davidson diagonalization with overlap

---- Real-time Memory Report at c_bands before calling an iterative solver
           561 MiB given to the printing process from OS
             0 MiB allocation reported by mallinfo(arena+hblkhd)
        118649 MiB available memory on the node where the printing process lives
------------------
     ethr =  6.11E-06,  avg # of iterations =  1.0

     total cpu time spent up to now is      118.8 secs

     total energy              =   -1449.08174613 Ry
     estimated scf accuracy    <       0.00553839 Ry

     iteration # 64     ecut=    30.00 Ry     beta= 0.70
     Davidson diagonalization with overlap

---- Real-time Memory Report at c_bands before calling an iterative solver
           561 MiB given to the printing process from OS
             0 MiB allocation reported by mallinfo(arena+hblkhd)
        118647 MiB available memory on the node where the printing process lives
------------------
     ethr =  6.11E-06,  avg # of iterations =  1.0

     total cpu time spent up to now is      120.6 secs

     total energy              =   -1449.08188669 Ry
     estimated scf accuracy    <       0.00517661 Ry

     iteration # 65     ecut=    30.00 Ry     beta= 0.70
     Davidson diagonalization with overlap

---- Real-time Memory Report at c_bands before calling an iterative solver
           561 MiB given to the printing process from OS
             0 MiB allocation reported by mallinfo(arena+hblkhd)
        118643 MiB available memory on the node where the printing process lives
------------------
     ethr =  6.11E-06,  avg # of iterations =  1.0

     total cpu time spent up to now is      122.4 secs

     total energy              =   -1449.08197986 Ry
     estimated scf accuracy    <       0.00419862 Ry

     iteration # 66     ecut=    30.00 Ry     beta= 0.70
     Davidson diagonalization with overlap

---- Real-time Memory Report at c_bands before calling an iterative solver
           561 MiB given to the printing process from OS
             0 MiB allocation reported by mallinfo(arena+hblkhd)
        118647 MiB available memory on the node where the printing process lives
------------------
     ethr =  6.08E-06,  avg # of iterations =  3.0

     total cpu time spent up to now is      124.3 secs

     total energy              =   -1449.08215186 Ry
     estimated scf accuracy    <       0.02932610 Ry

     iteration # 67     ecut=    30.00 Ry     beta= 0.70
     Davidson diagonalization with overlap

---- Real-time Memory Report at c_bands before calling an iterative solver
           561 MiB given to the printing process from OS
             0 MiB allocation reported by mallinfo(arena+hblkhd)
        118631 MiB available memory on the node where the printing process lives
------------------
     ethr =  6.08E-06,  avg # of iterations =  3.0

     total cpu time spent up to now is      126.1 secs

     total energy              =   -1449.08140381 Ry
     estimated scf accuracy    <       0.01424937 Ry

     iteration # 68     ecut=    30.00 Ry     beta= 0.70
     Davidson diagonalization with overlap

---- Real-time Memory Report at c_bands before calling an iterative solver
           561 MiB given to the printing process from OS
             0 MiB allocation reported by mallinfo(arena+hblkhd)
        118620 MiB available memory on the node where the printing process lives
------------------
     ethr =  6.08E-06,  avg # of iterations =  2.0

     total cpu time spent up to now is      127.9 secs

     total energy              =   -1449.08114356 Ry
     estimated scf accuracy    <       0.01173096 Ry

     iteration # 69     ecut=    30.00 Ry     beta= 0.70
     Davidson diagonalization with overlap

---- Real-time Memory Report at c_bands before calling an iterative solver
           561 MiB given to the printing process from OS
             0 MiB allocation reported by mallinfo(arena+hblkhd)
        118618 MiB available memory on the node where the printing process lives
------------------
     ethr =  6.08E-06,  avg # of iterations =  1.0

     total cpu time spent up to now is      129.6 secs

     total energy              =   -1449.08163120 Ry
     estimated scf accuracy    <       0.00924657 Ry

     iteration # 70     ecut=    30.00 Ry     beta= 0.70
     Davidson diagonalization with overlap

---- Real-time Memory Report at c_bands before calling an iterative solver
           561 MiB given to the printing process from OS
             0 MiB allocation reported by mallinfo(arena+hblkhd)
        118615 MiB available memory on the node where the printing process lives
------------------
     ethr =  6.08E-06,  avg # of iterations =  1.0

     total cpu time spent up to now is      131.4 secs

     total energy              =   -1449.08150393 Ry
     estimated scf accuracy    <       0.00624857 Ry

     iteration # 71     ecut=    30.00 Ry     beta= 0.70
     Davidson diagonalization with overlap

---- Real-time Memory Report at c_bands before calling an iterative solver
           561 MiB given to the printing process from OS
             0 MiB allocation reported by mallinfo(arena+hblkhd)
        118619 MiB available memory on the node where the printing process lives
------------------
     ethr =  6.08E-06,  avg # of iterations =  1.0

     total cpu time spent up to now is      133.2 secs

     total energy              =   -1449.08153439 Ry
     estimated scf accuracy    <       0.00586663 Ry

     iteration # 72     ecut=    30.00 Ry     beta= 0.70
     Davidson diagonalization with overlap

---- Real-time Memory Report at c_bands before calling an iterative solver
           561 MiB given to the printing process from OS
             0 MiB allocation reported by mallinfo(arena+hblkhd)
        118619 MiB available memory on the node where the printing process lives
------------------
     ethr =  6.08E-06,  avg # of iterations =  1.0

     total cpu time spent up to now is      134.9 secs

     total energy              =   -1449.08212398 Ry
     estimated scf accuracy    <       0.00552131 Ry

     iteration # 73     ecut=    30.00 Ry     beta= 0.70
     Davidson diagonalization with overlap

---- Real-time Memory Report at c_bands before calling an iterative solver
           561 MiB given to the printing process from OS
             0 MiB allocation reported by mallinfo(arena+hblkhd)
        118617 MiB available memory on the node where the printing process lives
------------------
     ethr =  6.08E-06,  avg # of iterations =  1.0

     total cpu time spent up to now is      136.7 secs

     total energy              =   -1449.08265039 Ry
     estimated scf accuracy    <       0.00123748 Ry

     iteration # 74     ecut=    30.00 Ry     beta= 0.70
     Davidson diagonalization with overlap

---- Real-time Memory Report at c_bands before calling an iterative solver
           561 MiB given to the printing process from OS
             0 MiB allocation reported by mallinfo(arena+hblkhd)
        118614 MiB available memory on the node where the printing process lives
------------------
     ethr =  1.79E-06,  avg # of iterations =  1.0

     total cpu time spent up to now is      138.5 secs

     total energy              =   -1449.08291518 Ry
     estimated scf accuracy    <       0.00219591 Ry

     iteration # 75     ecut=    30.00 Ry     beta= 0.70
     Davidson diagonalization with overlap

---- Real-time Memory Report at c_bands before calling an iterative solver
           561 MiB given to the printing process from OS
             0 MiB allocation reported by mallinfo(arena+hblkhd)
        118620 MiB available memory on the node where the printing process lives
------------------
     ethr =  1.79E-06,  avg # of iterations =  2.0

     total cpu time spent up to now is      140.2 secs

     total energy              =   -1449.08206060 Ry
     estimated scf accuracy    <       0.01247440 Ry

     iteration # 76     ecut=    30.00 Ry     beta= 0.70
     Davidson diagonalization with overlap

---- Real-time Memory Report at c_bands before calling an iterative solver
           561 MiB given to the printing process from OS
             0 MiB allocation reported by mallinfo(arena+hblkhd)
        118621 MiB available memory on the node where the printing process lives
------------------
     ethr =  1.79E-06,  avg # of iterations =  2.0

     total cpu time spent up to now is      142.0 secs

     total energy              =   -1449.08193674 Ry
     estimated scf accuracy    <       0.00937151 Ry

     iteration # 77     ecut=    30.00 Ry     beta= 0.70
     Davidson diagonalization with overlap

---- Real-time Memory Report at c_bands before calling an iterative solver
           561 MiB given to the printing process from OS
             0 MiB allocation reported by mallinfo(arena+hblkhd)
        118621 MiB available memory on the node where the printing process lives
------------------
     ethr =  1.79E-06,  avg # of iterations =  2.0

     total cpu time spent up to now is      143.8 secs

     total energy              =   -1449.08168495 Ry
     estimated scf accuracy    <       0.00632008 Ry

     iteration # 78     ecut=    30.00 Ry     beta= 0.70
     Davidson diagonalization with overlap

---- Real-time Memory Report at c_bands before calling an iterative solver
           561 MiB given to the printing process from OS
             0 MiB allocation reported by mallinfo(arena+hblkhd)
        118620 MiB available memory on the node where the printing process lives
------------------
     ethr =  1.79E-06,  avg # of iterations =  1.0

     total cpu time spent up to now is      145.5 secs

     total energy              =   -1449.08164844 Ry
     estimated scf accuracy    <       0.00587953 Ry

     iteration # 79     ecut=    30.00 Ry     beta= 0.70
     Davidson diagonalization with overlap

---- Real-time Memory Report at c_bands before calling an iterative solver
           561 MiB given to the printing process from OS
             0 MiB allocation reported by mallinfo(arena+hblkhd)
        118616 MiB available memory on the node where the printing process lives
------------------
     ethr =  1.79E-06,  avg # of iterations =  1.0

     total cpu time spent up to now is      148.5 secs

     total energy              =   -1449.08164609 Ry
     estimated scf accuracy    <       0.00557261 Ry

     iteration # 80     ecut=    30.00 Ry     beta= 0.70
     Davidson diagonalization with overlap

---- Real-time Memory Report at c_bands before calling an iterative solver
           561 MiB given to the printing process from OS
             0 MiB allocation reported by mallinfo(arena+hblkhd)
        118611 MiB available memory on the node where the printing process lives
------------------
     ethr =  1.79E-06,  avg # of iterations =  1.0

     total cpu time spent up to now is      150.3 secs

     total energy              =   -1449.08159335 Ry
     estimated scf accuracy    <       0.00535453 Ry

     iteration # 81     ecut=    30.00 Ry     beta= 0.70
     Davidson diagonalization with overlap

---- Real-time Memory Report at c_bands before calling an iterative solver
           561 MiB given to the printing process from OS
             0 MiB allocation reported by mallinfo(arena+hblkhd)
        118614 MiB available memory on the node where the printing process lives
------------------
     ethr =  1.79E-06,  avg # of iterations =  1.0

     total cpu time spent up to now is      152.0 secs

     total energy              =   -1449.08225651 Ry
     estimated scf accuracy    <       0.00531403 Ry

     iteration # 82     ecut=    30.00 Ry     beta= 0.70
     Davidson diagonalization with overlap

---- Real-time Memory Report at c_bands before calling an iterative solver
           561 MiB given to the printing process from OS
             0 MiB allocation reported by mallinfo(arena+hblkhd)
        118614 MiB available memory on the node where the printing process lives
------------------
     ethr =  1.79E-06,  avg # of iterations =  3.0

     total cpu time spent up to now is      155.4 secs

     total energy              =   -1449.08299346 Ry
     estimated scf accuracy    <       0.00951274 Ry

     iteration # 83     ecut=    30.00 Ry     beta= 0.70
     Davidson diagonalization with overlap

---- Real-time Memory Report at c_bands before calling an iterative solver
           561 MiB given to the printing process from OS
             0 MiB allocation reported by mallinfo(arena+hblkhd)
        118619 MiB available memory on the node where the printing process lives
------------------
     ethr =  1.79E-06,  avg # of iterations =  3.0

     total cpu time spent up to now is      157.1 secs

     total energy              =   -1449.08198153 Ry
     estimated scf accuracy    <       0.01103083 Ry

     iteration # 84     ecut=    30.00 Ry     beta= 0.70
     Davidson diagonalization with overlap

---- Real-time Memory Report at c_bands before calling an iterative solver
           561 MiB given to the printing process from OS
             0 MiB allocation reported by mallinfo(arena+hblkhd)
        118621 MiB available memory on the node where the printing process lives
------------------
     ethr =  1.79E-06,  avg # of iterations =  2.0

     total cpu time spent up to now is      158.9 secs

     total energy              =   -1449.08149418 Ry
     estimated scf accuracy    <       0.00786320 Ry

     iteration # 85     ecut=    30.00 Ry     beta= 0.70
     Davidson diagonalization with overlap

---- Real-time Memory Report at c_bands before calling an iterative solver
           561 MiB given to the printing process from OS
             0 MiB allocation reported by mallinfo(arena+hblkhd)
        118619 MiB available memory on the node where the printing process lives
------------------
     ethr =  1.79E-06,  avg # of iterations =  1.0

     total cpu time spent up to now is      160.7 secs

     total energy              =   -1449.08168131 Ry
     estimated scf accuracy    <       0.00717327 Ry

     iteration # 86     ecut=    30.00 Ry     beta= 0.70
     Davidson diagonalization with overlap

---- Real-time Memory Report at c_bands before calling an iterative solver
           561 MiB given to the printing process from OS
             0 MiB allocation reported by mallinfo(arena+hblkhd)
        118616 MiB available memory on the node where the printing process lives
------------------
     ethr =  1.79E-06,  avg # of iterations =  1.0

     total cpu time spent up to now is      162.5 secs

     total energy              =   -1449.08158676 Ry
     estimated scf accuracy    <       0.00587944 Ry

     iteration # 87     ecut=    30.00 Ry     beta= 0.70
     Davidson diagonalization with overlap

---- Real-time Memory Report at c_bands before calling an iterative solver
           561 MiB given to the printing process from OS
             0 MiB allocation reported by mallinfo(arena+hblkhd)
        118624 MiB available memory on the node where the printing process lives
------------------
     ethr =  1.79E-06,  avg # of iterations =  1.0

     total cpu time spent up to now is      164.2 secs

     total energy              =   -1449.08164403 Ry
     estimated scf accuracy    <       0.00551843 Ry

     iteration # 88     ecut=    30.00 Ry     beta= 0.70
     Davidson diagonalization with overlap

---- Real-time Memory Report at c_bands before calling an iterative solver
           561 MiB given to the printing process from OS
             0 MiB allocation reported by mallinfo(arena+hblkhd)
        118624 MiB available memory on the node where the printing process lives
------------------
     ethr =  1.79E-06,  avg # of iterations =  1.0

     total cpu time spent up to now is      166.2 secs

     total energy              =   -1449.08154477 Ry
     estimated scf accuracy    <       0.00513331 Ry

     iteration # 89     ecut=    30.00 Ry     beta= 0.70
     Davidson diagonalization with overlap

---- Real-time Memory Report at c_bands before calling an iterative solver
           561 MiB given to the printing process from OS
             0 MiB allocation reported by mallinfo(arena+hblkhd)
        118624 MiB available memory on the node where the printing process lives
------------------
     ethr =  1.79E-06,  avg # of iterations =  1.0

     total cpu time spent up to now is      168.1 secs

     total energy              =   -1449.08146628 Ry
     estimated scf accuracy    <       0.00508359 Ry

     iteration # 90     ecut=    30.00 Ry     beta= 0.70
     Davidson diagonalization with overlap

---- Real-time Memory Report at c_bands before calling an iterative solver
           561 MiB given to the printing process from OS
             0 MiB allocation reported by mallinfo(arena+hblkhd)
        118626 MiB available memory on the node where the printing process lives
------------------
     ethr =  1.79E-06,  avg # of iterations =  1.0

     total cpu time spent up to now is      169.8 secs

     total energy              =   -1449.08138636 Ry
     estimated scf accuracy    <       0.00519497 Ry

     iteration # 91     ecut=    30.00 Ry     beta= 0.70
     Davidson diagonalization with overlap

---- Real-time Memory Report at c_bands before calling an iterative solver
           561 MiB given to the printing process from OS
             0 MiB allocation reported by mallinfo(arena+hblkhd)
        118641 MiB available memory on the node where the printing process lives
------------------
     ethr =  1.79E-06,  avg # of iterations =  4.0

     total cpu time spent up to now is      171.8 secs

     total energy              =   -1449.08279403 Ry
     estimated scf accuracy    <       0.02627617 Ry

     iteration # 92     ecut=    30.00 Ry     beta= 0.70
     Davidson diagonalization with overlap

---- Real-time Memory Report at c_bands before calling an iterative solver
           561 MiB given to the printing process from OS
             0 MiB allocation reported by mallinfo(arena+hblkhd)
        118626 MiB available memory on the node where the printing process lives
------------------
     ethr =  1.79E-06,  avg # of iterations =  3.0

     total cpu time spent up to now is      173.7 secs

     total energy              =   -1449.08194464 Ry
     estimated scf accuracy    <       0.01286773 Ry

     iteration # 93     ecut=    30.00 Ry     beta= 0.70
     Davidson diagonalization with overlap

---- Real-time Memory Report at c_bands before calling an iterative solver
           561 MiB given to the printing process from OS
             0 MiB allocation reported by mallinfo(arena+hblkhd)
        118627 MiB available memory on the node where the printing process lives
------------------
     ethr =  1.79E-06,  avg # of iterations =  2.0

     total cpu time spent up to now is      175.3 secs

     total energy              =   -1449.08186162 Ry
     estimated scf accuracy    <       0.00855712 Ry

     iteration # 94     ecut=    30.00 Ry     beta= 0.70
     Davidson diagonalization with overlap

---- Real-time Memory Report at c_bands before calling an iterative solver
           561 MiB given to the printing process from OS
             0 MiB allocation reported by mallinfo(arena+hblkhd)
        118628 MiB available memory on the node where the printing process lives
------------------
     ethr =  1.79E-06,  avg # of iterations =  2.0

     total cpu time spent up to now is      176.9 secs

     total energy              =   -1449.08169597 Ry
     estimated scf accuracy    <       0.00696485 Ry

     iteration # 95     ecut=    30.00 Ry     beta= 0.70
     Davidson diagonalization with overlap

---- Real-time Memory Report at c_bands before calling an iterative solver
           561 MiB given to the printing process from OS
             0 MiB allocation reported by mallinfo(arena+hblkhd)
        118628 MiB available memory on the node where the printing process lives
------------------
     ethr =  1.79E-06,  avg # of iterations =  2.0

     total cpu time spent up to now is      178.5 secs

     total energy              =   -1449.08174335 Ry
     estimated scf accuracy    <       0.00595807 Ry

     iteration # 96     ecut=    30.00 Ry     beta= 0.70
     Davidson diagonalization with overlap

---- Real-time Memory Report at c_bands before calling an iterative solver
           561 MiB given to the printing process from OS
             0 MiB allocation reported by mallinfo(arena+hblkhd)
        118629 MiB available memory on the node where the printing process lives
------------------
     ethr =  1.79E-06,  avg # of iterations =  1.0

     total cpu time spent up to now is      180.1 secs

     total energy              =   -1449.08027769 Ry
     estimated scf accuracy    <       0.00538952 Ry

     iteration # 97     ecut=    30.00 Ry     beta= 0.70
     Davidson diagonalization with overlap

---- Real-time Memory Report at c_bands before calling an iterative solver
           561 MiB given to the printing process from OS
             0 MiB allocation reported by mallinfo(arena+hblkhd)
        118628 MiB available memory on the node where the printing process lives
------------------
     ethr =  1.79E-06,  avg # of iterations =  2.0

     total cpu time spent up to now is      181.7 secs

     total energy              =   -1449.08008742 Ry
     estimated scf accuracy    <       0.01047484 Ry

     iteration # 98     ecut=    30.00 Ry     beta= 0.70
     Davidson diagonalization with overlap

---- Real-time Memory Report at c_bands before calling an iterative solver
           561 MiB given to the printing process from OS
             0 MiB allocation reported by mallinfo(arena+hblkhd)
        118627 MiB available memory on the node where the printing process lives
------------------
     ethr =  1.79E-06,  avg # of iterations =  1.0

     total cpu time spent up to now is      183.3 secs

     total energy              =   -1449.07985957 Ry
     estimated scf accuracy    <       0.01216226 Ry

     iteration # 99     ecut=    30.00 Ry     beta= 0.70
     Davidson diagonalization with overlap

---- Real-time Memory Report at c_bands before calling an iterative solver
           561 MiB given to the printing process from OS
             0 MiB allocation reported by mallinfo(arena+hblkhd)
        118627 MiB available memory on the node where the printing process lives
------------------
     ethr =  1.79E-06,  avg # of iterations =  1.0

     total cpu time spent up to now is      184.9 secs

     total energy              =   -1449.08113978 Ry
     estimated scf accuracy    <       0.01305370 Ry

     iteration #100     ecut=    30.00 Ry     beta= 0.70
     Davidson diagonalization with overlap

---- Real-time Memory Report at c_bands before calling an iterative solver
           561 MiB given to the printing process from OS
             0 MiB allocation reported by mallinfo(arena+hblkhd)
        118627 MiB available memory on the node where the printing process lives
------------------
     ethr =  1.79E-06,  avg # of iterations =  5.0

     total cpu time spent up to now is      186.7 secs

     total energy              =   -1449.08238849 Ry
     estimated scf accuracy    <       0.02513712 Ry

     End of self-consistent calculation

     convergence NOT achieved after 100 iterations: stopping

     Writing config to output data dir new_calculations/myprefix.save/
     Message from routine punch:
     wavefunctions written to file
 
     init_run     :    164.12s CPU      6.62s WALL (       1 calls)
     electrons    :   5398.82s CPU    180.04s WALL (       1 calls)

     Called by init_run:
     wfcinit      :     24.42s CPU      0.79s WALL (       1 calls)
     wfcinit:atom :      0.03s CPU      0.00s WALL (       1 calls)
     wfcinit:wfcr :     24.16s CPU      0.78s WALL (       1 calls)
     potinit      :     37.90s CPU      1.25s WALL (       1 calls)
     hinit0       :     93.39s CPU      4.25s WALL (       1 calls)

     Called by electrons:
     c_bands      :   1345.86s CPU     42.71s WALL (     100 calls)
     sum_band     :    806.25s CPU     28.43s WALL (     100 calls)
     v_of_rho     :    100.65s CPU      3.37s WALL (     101 calls)
     v_h          :      8.04s CPU      0.27s WALL (     101 calls)
     v_xc         :     92.35s CPU      3.10s WALL (     101 calls)
     newd         :    883.68s CPU     29.86s WALL (     101 calls)
     PAW_pot      :   2228.12s CPU     74.39s WALL (     101 calls)
     mix_rho      :     27.85s CPU      0.92s WALL (     100 calls)

     Called by c_bands:
     init_us_2    :      3.38s CPU      0.12s WALL (     201 calls)
     init_us_2:cp :      3.03s CPU      0.11s WALL (     201 calls)
     regterg      :   1326.72s CPU     42.07s WALL (     100 calls)

     Called by sum_band:
     sum_band:wei :      0.35s CPU      0.01s WALL (     100 calls)
     sum_band:loo :    286.93s CPU      9.12s WALL (     100 calls)
     sum_band:buf :      0.07s CPU      0.00s WALL (     100 calls)
     sum_band:ini :      1.54s CPU      0.05s WALL (     100 calls)
     sum_band:cal :      1.01s CPU      0.03s WALL (     100 calls)
     sum_band:bec :      0.43s CPU      0.01s WALL (     100 calls)
     addusdens    :    499.76s CPU     18.66s WALL (     100 calls)
     addusd:skk   :      3.90s CPU      0.23s WALL (     300 calls)
     addusd:dgemm :     76.31s CPU      4.52s WALL (     300 calls)
     addusd:qvan2 :    278.36s CPU      9.00s WALL (     300 calls)

     Called by *egterg:
     rdiaghg      :     21.48s CPU      0.70s WALL (     358 calls)
     regterg:over :      1.32s CPU      0.04s WALL (     258 calls)
     regterg:upda :      2.67s CPU      0.09s WALL (     258 calls)
     regterg:last :      5.65s CPU      0.19s WALL (     170 calls)
     h_psi        :   1301.41s CPU     41.21s WALL (     359 calls)
     s_psi        :      1.20s CPU      0.04s WALL (     359 calls)
     g_psi        :      0.31s CPU      0.01s WALL (     258 calls)

     Called by h_psi:
     h_psi:calbec :      3.29s CPU      0.11s WALL (     359 calls)
     vloc_psi     :   1292.82s CPU     40.93s WALL (     359 calls)
     add_vuspsi   :      2.39s CPU      0.08s WALL (     359 calls)

     General routines
     calbec       :      3.62s CPU      0.12s WALL (     459 calls)
     fft          :     92.24s CPU      3.07s WALL (    1111 calls)
     ffts         :     15.21s CPU      0.50s WALL (     201 calls)
     fftw         :   1458.65s CPU     46.08s WALL (   11858 calls)
     interpolate  :     22.02s CPU      0.73s WALL (     101 calls)
     davcio       :      0.00s CPU      0.05s WALL (      19 calls)
 
     Parallel routines

     PAW routines
     PAW_pot      :   2228.12s CPU     74.39s WALL (     101 calls)
     PAW_symme    :     13.81s CPU      0.46s WALL (     201 calls)
 
     PWSCF        :      1h32m CPU   3m 7.11s WALL

 
   This run was terminated on:  20: 8:57  20May2023            

=------------------------------------------------------------------------------=
   JOB DONE.
=------------------------------------------------------------------------------=
