
     Program PWSCF v.7.0 starts on 21May2023 at 13:34: 3 

     This program is part of the open-source Quantum ESPRESSO suite
     for quantum simulation of materials; please cite
         "P. Giannozzi et al., J. Phys.:Condens. Matter 21 395502 (2009);
         "P. Giannozzi et al., J. Phys.:Condens. Matter 29 465901 (2017);
         "P. Giannozzi et al., J. Chem. Phys. 152 154105 (2020);
          URL http://www.quantum-espresso.org", 
     in publications or presentations arising from this work. More details at
     http://www.quantum-espresso.org/quote

     Parallel version (MPI & OpenMP), running on      32 processor cores
     Number of MPI processes:                 1
     Threads/MPI process:                    32

     MPI processes distributed on     1 nodes
     143750 MiB available memory on the printing compute node when the environment starts
 
     Reading input from espresso_24764.pwi
Warning: card &CELL ignored
Warning: card / ignored

     Current dimensions of program PWSCF are:
     Max number of different atomic species (ntypx) = 10
     Max number of k-points (npk) =  40000
     Max angular momentum in pseudopotentials (lmaxx) =  4
     file O.pbe-n-kjpaw_psl.0.1.UPF: wavefunction(s)  2P renormalized

     gamma-point specific algorithms are used

     Subspace diagonalization in iterative solution of the eigenvalue problem:
     a serial algorithm will be used

 
     G-vector sticks info
     --------------------
     sticks:   dense  smooth     PW     G-vecs:    dense   smooth      PW
     Sum        2213    1111    277                88907    31421    3919
 
     Using Slab Decomposition
 


     bravais-lattice index     =            0
     lattice parameter (alat)  =       9.3525  a.u.
     unit-cell volume          =    1415.9355 (a.u.)^3
     number of atoms/cell      =           20
     number of atomic types    =            3
     number of electrons       =       180.00
     number of Kohn-Sham states=          108
     kinetic-energy cutoff     =      30.0000  Ry
     charge density cutoff     =     240.0000  Ry
     scf convergence threshold =      1.0E-06
     mixing beta               =       0.7000
     number of iterations used =            8  plain     mixing
     Exchange-correlation= SLA  PW   PBX  PBC
                           (   1   4   3   4   0   0   0)

     celldm(1)=   9.352484  celldm(2)=   0.000000  celldm(3)=   0.000000
     celldm(4)=   0.000000  celldm(5)=   0.000000  celldm(6)=   0.000000

     crystal axes: (cart. coord. in units of alat)
               a(1) = (   1.000000   0.000000   0.000000 )  
               a(2) = (   0.156023   1.324998   0.000000 )  
               a(3) = (   0.156016   0.222514   1.306313 )  

     reciprocal axes: (cart. coord. in units 2 pi/alat)
               b(1) = (  1.000000 -0.117754 -0.099374 )  
               b(2) = (  0.000000  0.754718 -0.128557 )  
               b(3) = (  0.000000  0.000000  0.765513 )  


     PseudoPot. # 1 for Li read from file:
     /home/pragov/projects/rrg-bengioy-ad/pragov/crystal_structure_design/SSSP/li_pbe_v1.4.uspp.F.UPF
     MD5 check sum: e912e257baa3777c20ea3d68f190483c
     Pseudo is Ultrasoft, Zval =  3.0
     Generated by new atomic code, or converted to UPF format
     Using radial grid of  751 points,  5 beta functions with: 
                l(1) =   0
                l(2) =   0
                l(3) =   0
                l(4) =   1
                l(5) =   1
     Q(r) pseudized with 10 coefficients,  rinner =    1.150   1.150   1.150


     PseudoPot. # 2 for Co read from file:
     /home/pragov/projects/rrg-bengioy-ad/pragov/crystal_structure_design/SSSP/Co_pbe_v1.2.uspp.F.UPF
     MD5 check sum: 5f91765df6ddd3222702df6e7b74a16d
     Pseudo is Ultrasoft + core correction, Zval = 17.0
     Generated by new atomic code, or converted to UPF format
     Using radial grid of  863 points,  6 beta functions with: 
                l(1) =   0
                l(2) =   0
                l(3) =   1
                l(4) =   1
                l(5) =   2
                l(6) =   2
     Q(r) pseudized with  8 coefficients,  rinner =    1.200   1.200   1.200
                                                       1.200   1.200

     PseudoPot. # 3 for O  read from file:
     /home/pragov/projects/rrg-bengioy-ad/pragov/crystal_structure_design/SSSP/O.pbe-n-kjpaw_psl.0.1.UPF
     MD5 check sum: 0234752ac141de4415c5fc33072bef88
     Pseudo is Projector augmented-wave + core cor, Zval =  6.0
     Generated using "atomic" code by A. Dal Corso  v.5.0.99 svn rev. 10869
     Shape of augmentation charge: BESSEL
     Using radial grid of 1095 points,  4 beta functions with: 
                l(1) =   0
                l(2) =   0
                l(3) =   1
                l(4) =   1
     Q(r) pseudized with 0 coefficients 


     atomic species   valence    mass     pseudopotential
        Li             3.00     6.94000     Li( 1.00)
        Co            17.00    58.93319     Co( 1.00)
        O              6.00    15.99900     O ( 1.00)

     No symmetry found


                                    s                        frac. trans.

      isym =  1     identity                                     

 cryst.   s( 1) = (     1          0          0      )
                  (     0          1          0      )
                  (     0          0          1      )

 cart.    s( 1) = (  1.0000000  0.0000000  0.0000000 )
                  (  0.0000000  1.0000000  0.0000000 )
                  (  0.0000000  0.0000000  1.0000000 )


   Cartesian axes

     site n.     atom                  positions (alat units)
         1           Li  tau(   1) = (   1.1471648   0.5904639   0.8713395  )
         2           Li  tau(   2) = (   0.6648721   1.1406375   0.2174410  )
         3           Co  tau(   3) = (   0.8280096   0.2031692   0.5442531  )
         4           Co  tau(   4) = (   0.4840269   0.9768867   1.1974540  )
         5           Co  tau(   5) = (   0.3280328   0.3874052   0.3259852  )
         6           Co  tau(   6) = (   0.9839997   1.1603010   0.9800953  )
         7           Co  tau(   7) = (   0.8280397   0.5709741   0.1084841  )
         8           Co  tau(   8) = (   0.4840143   1.3438034   0.7626699  )
         9           O   tau(   9) = (   0.8528478   0.8155128   1.0612748  )
        10           O   tau(  10) = (   0.3225946   1.3838974   0.4225531  )
        11           O   tau(  11) = (   0.9591904   0.9157886   0.0272719  )
        12           O   tau(  12) = (   0.4894466   0.3473401   0.6660694  )
        13           O   tau(  13) = (   0.6579795   1.3069728   1.1055170  )
        14           O   tau(  14) = (   0.9960847   0.5329465   0.4588960  )
        15           O   tau(  15) = (   0.3100659   0.6468485   1.2893610  )
        16           O   tau(  16) = (   0.8158900   1.1983698   0.6296677  )
        17           O   tau(  17) = (   0.3099841   1.0120066   0.8565586  )
        18           O   tau(  18) = (   0.6599881   0.2319283   0.2048390  )
        19           O   tau(  19) = (   0.5020676   0.7192758   0.2319855  )
        20           O   tau(  20) = (   0.9960939   0.1743523   0.8836933  )

   Crystallographic axes

     site n.     atom                  positions (cryst. coord.)
         1           Li  tau(   1) = (  0.9910470  0.3336170  0.6670220  )
         2           Li  tau(   2) = (  0.5089500  0.8329060  0.1664540  )
         3           Co  tau(   3) = (  0.7500010  0.0833680  0.4166330  )
         4           Co  tau(   4) = (  0.2499990  0.5833330  0.9166670  )
         5           Co  tau(   5) = (  0.2500200  0.2504740  0.2495460  )
         6           Co  tau(   6) = (  0.7499740  0.7497020  0.7502760  )
         7           Co  tau(   7) = (  0.7500250  0.4169780  0.0830460  )
         8           Co  tau(   8) = (  0.2499870  0.9161460  0.5838340  )
         9           O   tau(   9) = (  0.6513550  0.4790480  0.8124200  )
        10           O   tau(  10) = (  0.1176450  0.9901300  0.3234700  )
        11           O   tau(  11) = (  0.8486430  0.6876560  0.0208770  )
        12           O   tau(  12) = (  0.3823560  0.1765160  0.5098850  )
        13           O   tau(  13) = (  0.3942190  0.8442740  0.8462880  )
        14           O   tau(  14) = (  0.8877260  0.3432300  0.3512910  )
        15           O   tau(  15) = (  0.1057680  0.3224320  0.9870230  )
        16           O   tau(  16) = (  0.6122050  0.8234830  0.4820190  )
        17           O   tau(  17) = (  0.1056970  0.6536630  0.6557070  )
        18           O   tau(  18) = (  0.6123220  0.1487070  0.1568070  )
        19           O   tau(  19) = (  0.3943170  0.5130270  0.1775880  )
        20           O   tau(  20) = (  0.8877470  0.0179820  0.6764790  )

     number of k points=     1  Methfessel-Paxton smearing, width (Ry)=  0.0010
                       cart. coord. in units 2pi/alat
        k(    1) = (   0.0000000   0.0000000   0.0000000), wk =   2.0000000

                       cryst. coord.
        k(    1) = (   0.0000000   0.0000000   0.0000000), wk =   2.0000000

     Dense  grid:    44454 G-vectors     FFT dimensions: (  48,  64,  64)

     Smooth grid:    15711 G-vectors     FFT dimensions: (  36,  45,  45)

     Dynamical RAM for                 wfc:       3.24 MB

     Dynamical RAM for     wfc (w. buffer):       3.24 MB

     Dynamical RAM for           str. fact:       2.03 MB

     Dynamical RAM for           local pot:       0.00 MB

     Dynamical RAM for          nlocal pot:       6.65 MB

     Dynamical RAM for                qrad:       3.73 MB

     Dynamical RAM for          rho,v,vnew:       6.53 MB

     Dynamical RAM for               rhoin:       2.18 MB

     Dynamical RAM for            rho*nmix:      10.85 MB

     Dynamical RAM for           G-vectors:       2.66 MB

     Dynamical RAM for          h,s,v(r/c):       1.07 MB

     Dynamical RAM for          <psi|beta>:       0.18 MB

     Dynamical RAM for                 psi:       6.47 MB

     Dynamical RAM for                hpsi:       6.47 MB

     Dynamical RAM for                spsi:       6.47 MB

     Dynamical RAM for      wfcinit/wfcrot:       8.58 MB

     Dynamical RAM for           addusdens:     134.31 MB

     Dynamical RAM for          addusforce:     149.62 MB

     Dynamical RAM for         addusstress:     136.34 MB

     Estimated static dynamical RAM per process >      37.25 MB

     Estimated max dynamical RAM per process >     197.72 MB

     Check: negative core charge=   -0.000024

     Initial potential from superposition of free atoms

     starting charge     173.0985, renormalised to     180.0000
     Starting wfcs are  136 randomized atomic wfcs
     Checking if some PAW data can be deallocated... 

     total cpu time spent up to now is        6.1 secs

     Self-consistent Calculation

     iteration #  1     ecut=    30.00 Ry     beta= 0.70
     Davidson diagonalization with overlap

---- Real-time Memory Report at c_bands before calling an iterative solver
           542 MiB given to the printing process from OS
             0 MiB allocation reported by mallinfo(arena+hblkhd)
        143499 MiB available memory on the node where the printing process lives
------------------
     ethr =  1.00E-02,  avg # of iterations =  3.0

     total cpu time spent up to now is        7.3 secs

     total energy              =   -2277.99791614 Ry
     estimated scf accuracy    <      57.63116416 Ry

     iteration #  2     ecut=    30.00 Ry     beta= 0.70
     Davidson diagonalization with overlap

---- Real-time Memory Report at c_bands before calling an iterative solver
           572 MiB given to the printing process from OS
             0 MiB allocation reported by mallinfo(arena+hblkhd)
        143477 MiB available memory on the node where the printing process lives
------------------
     ethr =  1.00E-02,  avg # of iterations =  3.0

     total cpu time spent up to now is        8.8 secs

     total energy              =   -2301.37640591 Ry
     estimated scf accuracy    <     273.23139692 Ry

     iteration #  3     ecut=    30.00 Ry     beta= 0.70
     Davidson diagonalization with overlap

---- Real-time Memory Report at c_bands before calling an iterative solver
           591 MiB given to the printing process from OS
             0 MiB allocation reported by mallinfo(arena+hblkhd)
        143461 MiB available memory on the node where the printing process lives
------------------
     ethr =  1.00E-02,  avg # of iterations =  3.0

     total cpu time spent up to now is       10.3 secs

     total energy              =   -2318.08282980 Ry
     estimated scf accuracy    <      35.70937071 Ry

     iteration #  4     ecut=    30.00 Ry     beta= 0.70
     Davidson diagonalization with overlap

---- Real-time Memory Report at c_bands before calling an iterative solver
           591 MiB given to the printing process from OS
             0 MiB allocation reported by mallinfo(arena+hblkhd)
        143488 MiB available memory on the node where the printing process lives
------------------
     ethr =  1.00E-02,  avg # of iterations =  2.0

     total cpu time spent up to now is       11.3 secs

     total energy              =   -2317.28607987 Ry
     estimated scf accuracy    <      17.01591740 Ry

     iteration #  5     ecut=    30.00 Ry     beta= 0.70
     Davidson diagonalization with overlap

---- Real-time Memory Report at c_bands before calling an iterative solver
           591 MiB given to the printing process from OS
             0 MiB allocation reported by mallinfo(arena+hblkhd)
        143483 MiB available memory on the node where the printing process lives
------------------
     ethr =  9.45E-03,  avg # of iterations =  1.0

     total cpu time spent up to now is       12.4 secs

     total energy              =   -2318.26672919 Ry
     estimated scf accuracy    <      10.93266902 Ry

     iteration #  6     ecut=    30.00 Ry     beta= 0.70
     Davidson diagonalization with overlap

---- Real-time Memory Report at c_bands before calling an iterative solver
           591 MiB given to the printing process from OS
             0 MiB allocation reported by mallinfo(arena+hblkhd)
        143484 MiB available memory on the node where the printing process lives
------------------
     ethr =  6.07E-03,  avg # of iterations =  1.0

     total cpu time spent up to now is       13.5 secs

     total energy              =   -2318.68306570 Ry
     estimated scf accuracy    <       3.77045753 Ry

     iteration #  7     ecut=    30.00 Ry     beta= 0.70
     Davidson diagonalization with overlap

---- Real-time Memory Report at c_bands before calling an iterative solver
           592 MiB given to the printing process from OS
             0 MiB allocation reported by mallinfo(arena+hblkhd)
        143465 MiB available memory on the node where the printing process lives
------------------
     ethr =  2.09E-03,  avg # of iterations =  1.0

     total cpu time spent up to now is       14.5 secs

     total energy              =   -2318.68040998 Ry
     estimated scf accuracy    <       5.48818344 Ry

     iteration #  8     ecut=    30.00 Ry     beta= 0.70
     Davidson diagonalization with overlap

---- Real-time Memory Report at c_bands before calling an iterative solver
           592 MiB given to the printing process from OS
             0 MiB allocation reported by mallinfo(arena+hblkhd)
        143463 MiB available memory on the node where the printing process lives
------------------
     ethr =  2.09E-03,  avg # of iterations =  3.0

     total cpu time spent up to now is       15.6 secs

     total energy              =   -2318.72494139 Ry
     estimated scf accuracy    <       2.35393597 Ry

     iteration #  9     ecut=    30.00 Ry     beta= 0.70
     Davidson diagonalization with overlap

---- Real-time Memory Report at c_bands before calling an iterative solver
           592 MiB given to the printing process from OS
             0 MiB allocation reported by mallinfo(arena+hblkhd)
        143461 MiB available memory on the node where the printing process lives
------------------
     ethr =  1.31E-03,  avg # of iterations =  6.0

     total cpu time spent up to now is       16.8 secs

     total energy              =   -2318.76509266 Ry
     estimated scf accuracy    <       0.61522608 Ry

     iteration # 10     ecut=    30.00 Ry     beta= 0.70
     Davidson diagonalization with overlap

---- Real-time Memory Report at c_bands before calling an iterative solver
           592 MiB given to the printing process from OS
             0 MiB allocation reported by mallinfo(arena+hblkhd)
        143441 MiB available memory on the node where the printing process lives
------------------
     ethr =  3.42E-04,  avg # of iterations =  2.0

     total cpu time spent up to now is       17.8 secs

     total energy              =   -2318.70774456 Ry
     estimated scf accuracy    <       0.96634006 Ry

     iteration # 11     ecut=    30.00 Ry     beta= 0.70
     Davidson diagonalization with overlap

---- Real-time Memory Report at c_bands before calling an iterative solver
           592 MiB given to the printing process from OS
             0 MiB allocation reported by mallinfo(arena+hblkhd)
        143439 MiB available memory on the node where the printing process lives
------------------
     ethr =  3.42E-04,  avg # of iterations =  1.0

     total cpu time spent up to now is       18.9 secs

     total energy              =   -2318.56355200 Ry
     estimated scf accuracy    <       4.62869791 Ry

     iteration # 12     ecut=    30.00 Ry     beta= 0.70
     Davidson diagonalization with overlap

---- Real-time Memory Report at c_bands before calling an iterative solver
           592 MiB given to the printing process from OS
             0 MiB allocation reported by mallinfo(arena+hblkhd)
        143410 MiB available memory on the node where the printing process lives
------------------
     ethr =  3.42E-04,  avg # of iterations =  2.0

     total cpu time spent up to now is       19.9 secs

     total energy              =   -2318.59244289 Ry
     estimated scf accuracy    <       8.29355417 Ry

     iteration # 13     ecut=    30.00 Ry     beta= 0.70
     Davidson diagonalization with overlap

---- Real-time Memory Report at c_bands before calling an iterative solver
           599 MiB given to the printing process from OS
             0 MiB allocation reported by mallinfo(arena+hblkhd)
        143411 MiB available memory on the node where the printing process lives
------------------
     ethr =  3.42E-04,  avg # of iterations =  3.0

     total cpu time spent up to now is       21.0 secs

     total energy              =   -2318.72099309 Ry
     estimated scf accuracy    <       1.31155158 Ry

     iteration # 14     ecut=    30.00 Ry     beta= 0.70
     Davidson diagonalization with overlap

---- Real-time Memory Report at c_bands before calling an iterative solver
           599 MiB given to the printing process from OS
             0 MiB allocation reported by mallinfo(arena+hblkhd)
        143407 MiB available memory on the node where the printing process lives
------------------
     ethr =  3.42E-04,  avg # of iterations =  8.0

     total cpu time spent up to now is       22.2 secs

     total energy              =   -2318.74232155 Ry
     estimated scf accuracy    <       0.32491201 Ry

     iteration # 15     ecut=    30.00 Ry     beta= 0.70
     Davidson diagonalization with overlap

---- Real-time Memory Report at c_bands before calling an iterative solver
           600 MiB given to the printing process from OS
             0 MiB allocation reported by mallinfo(arena+hblkhd)
        143408 MiB available memory on the node where the printing process lives
------------------
     ethr =  1.81E-04,  avg # of iterations =  1.0

     total cpu time spent up to now is       23.2 secs

     total energy              =   -2318.75143373 Ry
     estimated scf accuracy    <       0.36142156 Ry

     iteration # 16     ecut=    30.00 Ry     beta= 0.70
     Davidson diagonalization with overlap

---- Real-time Memory Report at c_bands before calling an iterative solver
           600 MiB given to the printing process from OS
             0 MiB allocation reported by mallinfo(arena+hblkhd)
        143408 MiB available memory on the node where the printing process lives
------------------
     ethr =  1.81E-04,  avg # of iterations =  1.0

     total cpu time spent up to now is       24.3 secs

     total energy              =   -2318.71607575 Ry
     estimated scf accuracy    <       3.82398667 Ry

     iteration # 17     ecut=    30.00 Ry     beta= 0.70
     Davidson diagonalization with overlap

---- Real-time Memory Report at c_bands before calling an iterative solver
           600 MiB given to the printing process from OS
             0 MiB allocation reported by mallinfo(arena+hblkhd)
        143405 MiB available memory on the node where the printing process lives
------------------
     ethr =  1.81E-04,  avg # of iterations =  1.0

     total cpu time spent up to now is       25.3 secs

     total energy              =   -2318.73749193 Ry
     estimated scf accuracy    <       0.21810468 Ry

     iteration # 18     ecut=    30.00 Ry     beta= 0.70
     Davidson diagonalization with overlap

---- Real-time Memory Report at c_bands before calling an iterative solver
           600 MiB given to the printing process from OS
             0 MiB allocation reported by mallinfo(arena+hblkhd)
        143405 MiB available memory on the node where the printing process lives
------------------
     ethr =  1.21E-04,  avg # of iterations =  2.0

     total cpu time spent up to now is       26.4 secs

     total energy              =   -2318.65322526 Ry
     estimated scf accuracy    <       7.74989359 Ry

     iteration # 19     ecut=    30.00 Ry     beta= 0.70
     Davidson diagonalization with overlap

---- Real-time Memory Report at c_bands before calling an iterative solver
           600 MiB given to the printing process from OS
             0 MiB allocation reported by mallinfo(arena+hblkhd)
        143405 MiB available memory on the node where the printing process lives
------------------
     ethr =  1.21E-04,  avg # of iterations =  2.0

     total cpu time spent up to now is       27.5 secs

     total energy              =   -2318.75356761 Ry
     estimated scf accuracy    <       0.22584866 Ry

     iteration # 20     ecut=    30.00 Ry     beta= 0.70
     Davidson diagonalization with overlap

---- Real-time Memory Report at c_bands before calling an iterative solver
           600 MiB given to the printing process from OS
             0 MiB allocation reported by mallinfo(arena+hblkhd)
        143435 MiB available memory on the node where the printing process lives
------------------
     ethr =  1.21E-04,  avg # of iterations =  1.0

     total cpu time spent up to now is       28.5 secs

     total energy              =   -2318.74685408 Ry
     estimated scf accuracy    <       0.19321087 Ry

     iteration # 21     ecut=    30.00 Ry     beta= 0.70
     Davidson diagonalization with overlap

---- Real-time Memory Report at c_bands before calling an iterative solver
           600 MiB given to the printing process from OS
             0 MiB allocation reported by mallinfo(arena+hblkhd)
        143430 MiB available memory on the node where the printing process lives
------------------
     ethr =  1.07E-04,  avg # of iterations =  1.0

     total cpu time spent up to now is       29.8 secs

     total energy              =   -2318.66461964 Ry
     estimated scf accuracy    <       6.80414079 Ry

     iteration # 22     ecut=    30.00 Ry     beta= 0.70
     Davidson diagonalization with overlap

---- Real-time Memory Report at c_bands before calling an iterative solver
           600 MiB given to the printing process from OS
             0 MiB allocation reported by mallinfo(arena+hblkhd)
        143424 MiB available memory on the node where the printing process lives
------------------
     ethr =  1.07E-04,  avg # of iterations =  1.0

     total cpu time spent up to now is       32.1 secs

     total energy              =   -2318.74366112 Ry
     estimated scf accuracy    <       1.37439120 Ry

     iteration # 23     ecut=    30.00 Ry     beta= 0.70
     Davidson diagonalization with overlap

---- Real-time Memory Report at c_bands before calling an iterative solver
           601 MiB given to the printing process from OS
             0 MiB allocation reported by mallinfo(arena+hblkhd)
        143421 MiB available memory on the node where the printing process lives
------------------
     ethr =  1.07E-04,  avg # of iterations =  2.0

     total cpu time spent up to now is       33.2 secs

     total energy              =   -2318.66558273 Ry
     estimated scf accuracy    <       7.49680032 Ry

     iteration # 24     ecut=    30.00 Ry     beta= 0.70
     Davidson diagonalization with overlap

---- Real-time Memory Report at c_bands before calling an iterative solver
           602 MiB given to the printing process from OS
             0 MiB allocation reported by mallinfo(arena+hblkhd)
        143425 MiB available memory on the node where the printing process lives
------------------
     ethr =  1.07E-04,  avg # of iterations =  2.0

     total cpu time spent up to now is       34.3 secs

     total energy              =   -2318.75613909 Ry
     estimated scf accuracy    <       0.28542947 Ry

     iteration # 25     ecut=    30.00 Ry     beta= 0.70
     Davidson diagonalization with overlap

---- Real-time Memory Report at c_bands before calling an iterative solver
           602 MiB given to the printing process from OS
             0 MiB allocation reported by mallinfo(arena+hblkhd)
        143424 MiB available memory on the node where the printing process lives
------------------
     ethr =  1.07E-04,  avg # of iterations =  1.0

     total cpu time spent up to now is       35.4 secs

     total energy              =   -2318.75317396 Ry
     estimated scf accuracy    <       0.17505515 Ry

     iteration # 26     ecut=    30.00 Ry     beta= 0.70
     Davidson diagonalization with overlap

---- Real-time Memory Report at c_bands before calling an iterative solver
           602 MiB given to the printing process from OS
             0 MiB allocation reported by mallinfo(arena+hblkhd)
        143424 MiB available memory on the node where the printing process lives
------------------
     ethr =  9.73E-05,  avg # of iterations =  1.0

     total cpu time spent up to now is       36.4 secs

     total energy              =   -2318.73887791 Ry
     estimated scf accuracy    <       2.07376074 Ry

     iteration # 27     ecut=    30.00 Ry     beta= 0.70
     Davidson diagonalization with overlap

---- Real-time Memory Report at c_bands before calling an iterative solver
           602 MiB given to the printing process from OS
             0 MiB allocation reported by mallinfo(arena+hblkhd)
        143425 MiB available memory on the node where the printing process lives
------------------
     ethr =  9.73E-05,  avg # of iterations =  1.0

     total cpu time spent up to now is       37.4 secs

     total energy              =   -2318.75756517 Ry
     estimated scf accuracy    <       0.14595906 Ry

     iteration # 28     ecut=    30.00 Ry     beta= 0.70
     Davidson diagonalization with overlap

---- Real-time Memory Report at c_bands before calling an iterative solver
           602 MiB given to the printing process from OS
             0 MiB allocation reported by mallinfo(arena+hblkhd)
        143424 MiB available memory on the node where the printing process lives
------------------
     ethr =  8.11E-05,  avg # of iterations =  1.0

     total cpu time spent up to now is       38.5 secs

     total energy              =   -2318.75392999 Ry
     estimated scf accuracy    <       0.60043706 Ry

     iteration # 29     ecut=    30.00 Ry     beta= 0.70
     Davidson diagonalization with overlap

---- Real-time Memory Report at c_bands before calling an iterative solver
           602 MiB given to the printing process from OS
             0 MiB allocation reported by mallinfo(arena+hblkhd)
        143426 MiB available memory on the node where the printing process lives
------------------
     ethr =  8.11E-05,  avg # of iterations =  1.0

     total cpu time spent up to now is       39.5 secs

     total energy              =   -2318.75600542 Ry
     estimated scf accuracy    <       0.14103380 Ry

     iteration # 30     ecut=    30.00 Ry     beta= 0.70
     Davidson diagonalization with overlap

---- Real-time Memory Report at c_bands before calling an iterative solver
           602 MiB given to the printing process from OS
             0 MiB allocation reported by mallinfo(arena+hblkhd)
        143404 MiB available memory on the node where the printing process lives
------------------
     ethr =  7.84E-05,  avg # of iterations =  1.0

     total cpu time spent up to now is       40.5 secs

     total energy              =   -2318.75215221 Ry
     estimated scf accuracy    <       0.27364093 Ry

     iteration # 31     ecut=    30.00 Ry     beta= 0.70
     Davidson diagonalization with overlap

---- Real-time Memory Report at c_bands before calling an iterative solver
           602 MiB given to the printing process from OS
             0 MiB allocation reported by mallinfo(arena+hblkhd)
        143464 MiB available memory on the node where the printing process lives
------------------
     ethr =  7.84E-05,  avg # of iterations =  1.0

     total cpu time spent up to now is       41.6 secs

     total energy              =   -2318.73796216 Ry
     estimated scf accuracy    <       2.41695823 Ry

     iteration # 32     ecut=    30.00 Ry     beta= 0.70
     Davidson diagonalization with overlap

---- Real-time Memory Report at c_bands before calling an iterative solver
           602 MiB given to the printing process from OS
             0 MiB allocation reported by mallinfo(arena+hblkhd)
        143429 MiB available memory on the node where the printing process lives
------------------
     ethr =  7.84E-05,  avg # of iterations =  1.0

     total cpu time spent up to now is       42.9 secs

     total energy              =   -2318.75725720 Ry
     estimated scf accuracy    <       0.02032893 Ry

     iteration # 33     ecut=    30.00 Ry     beta= 0.70
     Davidson diagonalization with overlap

---- Real-time Memory Report at c_bands before calling an iterative solver
           602 MiB given to the printing process from OS
             0 MiB allocation reported by mallinfo(arena+hblkhd)
        143481 MiB available memory on the node where the printing process lives
------------------
     ethr =  1.13E-05,  avg # of iterations =  2.0

     total cpu time spent up to now is       44.2 secs

     total energy              =   -2318.73735461 Ry
     estimated scf accuracy    <       2.90296674 Ry

     iteration # 34     ecut=    30.00 Ry     beta= 0.70
     Davidson diagonalization with overlap

---- Real-time Memory Report at c_bands before calling an iterative solver
           602 MiB given to the printing process from OS
             0 MiB allocation reported by mallinfo(arena+hblkhd)
        143443 MiB available memory on the node where the printing process lives
------------------
     ethr =  1.13E-05,  avg # of iterations =  2.0

     total cpu time spent up to now is       45.3 secs

     WARNING: integrated charge=   180.00073973, expected=   180.00000000

     total energy              =   -2318.75183059 Ry
     estimated scf accuracy    <       0.27963136 Ry

     iteration # 35     ecut=    30.00 Ry     beta= 0.70
     Davidson diagonalization with overlap

---- Real-time Memory Report at c_bands before calling an iterative solver
           602 MiB given to the printing process from OS
             0 MiB allocation reported by mallinfo(arena+hblkhd)
        143444 MiB available memory on the node where the printing process lives
------------------
     ethr =  1.13E-05,  avg # of iterations =  2.0

     total cpu time spent up to now is       46.4 secs

     WARNING: integrated charge=   180.00050113, expected=   180.00000000

     total energy              =   -2318.73717983 Ry
     estimated scf accuracy    <       2.18489619 Ry

     iteration # 36     ecut=    30.00 Ry     beta= 0.70
     Davidson diagonalization with overlap

---- Real-time Memory Report at c_bands before calling an iterative solver
           602 MiB given to the printing process from OS
             0 MiB allocation reported by mallinfo(arena+hblkhd)
        143446 MiB available memory on the node where the printing process lives
------------------
     ethr =  1.13E-05,  avg # of iterations =  1.0

     total cpu time spent up to now is       47.4 secs

     WARNING: integrated charge=   180.00082712, expected=   180.00000000

     total energy              =   -2318.74485058 Ry
     estimated scf accuracy    <       1.55674007 Ry

     iteration # 37     ecut=    30.00 Ry     beta= 0.70
     Davidson diagonalization with overlap

---- Real-time Memory Report at c_bands before calling an iterative solver
           602 MiB given to the printing process from OS
             0 MiB allocation reported by mallinfo(arena+hblkhd)
        143446 MiB available memory on the node where the printing process lives
------------------
     ethr =  1.13E-05,  avg # of iterations =  1.0

     total cpu time spent up to now is       48.5 secs

     WARNING: integrated charge=   180.00019452, expected=   180.00000000

     total energy              =   -2318.74934383 Ry
     estimated scf accuracy    <       0.38441017 Ry

     iteration # 38     ecut=    30.00 Ry     beta= 0.70
     Davidson diagonalization with overlap

---- Real-time Memory Report at c_bands before calling an iterative solver
           602 MiB given to the printing process from OS
             0 MiB allocation reported by mallinfo(arena+hblkhd)
        143445 MiB available memory on the node where the printing process lives
------------------
     ethr =  1.13E-05,  avg # of iterations =  2.0

     total cpu time spent up to now is       49.5 secs

     WARNING: integrated charge=   180.00049787, expected=   180.00000000

     total energy              =   -2318.72906464 Ry
     estimated scf accuracy    <       3.29516908 Ry

     iteration # 39     ecut=    30.00 Ry     beta= 0.70
     Davidson diagonalization with overlap

---- Real-time Memory Report at c_bands before calling an iterative solver
           602 MiB given to the printing process from OS
             0 MiB allocation reported by mallinfo(arena+hblkhd)
        143474 MiB available memory on the node where the printing process lives
------------------
     ethr =  1.13E-05,  avg # of iterations =  2.0

     total cpu time spent up to now is       50.6 secs

     WARNING: integrated charge=   180.00046866, expected=   180.00000000

     total energy              =   -2318.75634304 Ry
     estimated scf accuracy    <       0.22219326 Ry

     iteration # 40     ecut=    30.00 Ry     beta= 0.70
     Davidson diagonalization with overlap

---- Real-time Memory Report at c_bands before calling an iterative solver
           602 MiB given to the printing process from OS
             0 MiB allocation reported by mallinfo(arena+hblkhd)
        143470 MiB available memory on the node where the printing process lives
------------------
     ethr =  1.13E-05,  avg # of iterations =  1.0

     total cpu time spent up to now is       51.7 secs

     WARNING: integrated charge=   180.00064626, expected=   180.00000000

     total energy              =   -2318.75368615 Ry
     estimated scf accuracy    <       0.24342678 Ry

     iteration # 41     ecut=    30.00 Ry     beta= 0.70
     Davidson diagonalization with overlap

---- Real-time Memory Report at c_bands before calling an iterative solver
           602 MiB given to the printing process from OS
             0 MiB allocation reported by mallinfo(arena+hblkhd)
        143470 MiB available memory on the node where the printing process lives
------------------
     ethr =  1.13E-05,  avg # of iterations =  1.0

     total cpu time spent up to now is       52.7 secs

     WARNING: integrated charge=   180.00090572, expected=   180.00000000

     total energy              =   -2318.73972098 Ry
     estimated scf accuracy    <       1.98321748 Ry

     iteration # 42     ecut=    30.00 Ry     beta= 0.70
     Davidson diagonalization with overlap

---- Real-time Memory Report at c_bands before calling an iterative solver
           602 MiB given to the printing process from OS
             0 MiB allocation reported by mallinfo(arena+hblkhd)
        143471 MiB available memory on the node where the printing process lives
------------------
     ethr =  1.13E-05,  avg # of iterations =  2.0

     total cpu time spent up to now is       53.9 secs

     WARNING: integrated charge=   180.00119207, expected=   180.00000000

     total energy              =   -2318.74869368 Ry
     estimated scf accuracy    <       0.37546932 Ry

     iteration # 43     ecut=    30.00 Ry     beta= 0.70
     Davidson diagonalization with overlap

---- Real-time Memory Report at c_bands before calling an iterative solver
           602 MiB given to the printing process from OS
             0 MiB allocation reported by mallinfo(arena+hblkhd)
        143473 MiB available memory on the node where the printing process lives
------------------
     ethr =  1.13E-05,  avg # of iterations =  2.0

     total cpu time spent up to now is       54.9 secs

     WARNING: integrated charge=   180.00020209, expected=   180.00000000

     total energy              =   -2318.74500033 Ry
     estimated scf accuracy    <       1.88321103 Ry

     iteration # 44     ecut=    30.00 Ry     beta= 0.70
     Davidson diagonalization with overlap

---- Real-time Memory Report at c_bands before calling an iterative solver
           602 MiB given to the printing process from OS
             0 MiB allocation reported by mallinfo(arena+hblkhd)
        143472 MiB available memory on the node where the printing process lives
------------------
     ethr =  1.13E-05,  avg # of iterations =  2.0

     total cpu time spent up to now is       56.0 secs

     WARNING: integrated charge=   180.00017850, expected=   180.00000000

     total energy              =   -2318.75431252 Ry
     estimated scf accuracy    <       0.28318827 Ry

     iteration # 45     ecut=    30.00 Ry     beta= 0.70
     Davidson diagonalization with overlap

---- Real-time Memory Report at c_bands before calling an iterative solver
           602 MiB given to the printing process from OS
             0 MiB allocation reported by mallinfo(arena+hblkhd)
        143472 MiB available memory on the node where the printing process lives
------------------
     ethr =  1.13E-05,  avg # of iterations =  1.0

     total cpu time spent up to now is       57.0 secs

     WARNING: integrated charge=   180.00018277, expected=   180.00000000

     total energy              =   -2318.75543551 Ry
     estimated scf accuracy    <       0.24712645 Ry

     iteration # 46     ecut=    30.00 Ry     beta= 0.70
     Davidson diagonalization with overlap

---- Real-time Memory Report at c_bands before calling an iterative solver
           602 MiB given to the printing process from OS
             0 MiB allocation reported by mallinfo(arena+hblkhd)
        143453 MiB available memory on the node where the printing process lives
------------------
     ethr =  1.13E-05,  avg # of iterations =  1.0

     total cpu time spent up to now is       58.1 secs

     WARNING: integrated charge=   180.00010263, expected=   180.00000000

     total energy              =   -2318.73374454 Ry
     estimated scf accuracy    <       1.68236907 Ry

     iteration # 47     ecut=    30.00 Ry     beta= 0.70
     Davidson diagonalization with overlap

---- Real-time Memory Report at c_bands before calling an iterative solver
           602 MiB given to the printing process from OS
             0 MiB allocation reported by mallinfo(arena+hblkhd)
        143451 MiB available memory on the node where the printing process lives
------------------
     ethr =  1.13E-05,  avg # of iterations =  3.0

     total cpu time spent up to now is       59.4 secs

     WARNING: integrated charge=   180.00014284, expected=   180.00000000

     total energy              =   -2318.68444453 Ry
     estimated scf accuracy    <       7.65265248 Ry

     iteration # 48     ecut=    30.00 Ry     beta= 0.70
     Davidson diagonalization with overlap

---- Real-time Memory Report at c_bands before calling an iterative solver
           602 MiB given to the printing process from OS
             0 MiB allocation reported by mallinfo(arena+hblkhd)
        143449 MiB available memory on the node where the printing process lives
------------------
     ethr =  1.13E-05,  avg # of iterations =  2.0

     total cpu time spent up to now is       60.5 secs

     WARNING: integrated charge=   180.00010614, expected=   180.00000000

     total energy              =   -2318.75414578 Ry
     estimated scf accuracy    <       0.30853972 Ry

     iteration # 49     ecut=    30.00 Ry     beta= 0.70
     Davidson diagonalization with overlap

---- Real-time Memory Report at c_bands before calling an iterative solver
           602 MiB given to the printing process from OS
             0 MiB allocation reported by mallinfo(arena+hblkhd)
        143449 MiB available memory on the node where the printing process lives
------------------
     ethr =  1.13E-05,  avg # of iterations =  2.0

     total cpu time spent up to now is       61.6 secs

     WARNING: integrated charge=   180.00007812, expected=   180.00000000

     total energy              =   -2318.72603417 Ry
     estimated scf accuracy    <       3.76496000 Ry

     iteration # 50     ecut=    30.00 Ry     beta= 0.70
     Davidson diagonalization with overlap

---- Real-time Memory Report at c_bands before calling an iterative solver
           602 MiB given to the printing process from OS
             0 MiB allocation reported by mallinfo(arena+hblkhd)
        143450 MiB available memory on the node where the printing process lives
------------------
     ethr =  1.13E-05,  avg # of iterations =  2.0

     total cpu time spent up to now is       62.7 secs

     WARNING: integrated charge=   180.00007578, expected=   180.00000000

     total energy              =   -2318.74874924 Ry
     estimated scf accuracy    <       0.35357924 Ry

     iteration # 51     ecut=    30.00 Ry     beta= 0.70
     Davidson diagonalization with overlap

---- Real-time Memory Report at c_bands before calling an iterative solver
           602 MiB given to the printing process from OS
             0 MiB allocation reported by mallinfo(arena+hblkhd)
        143451 MiB available memory on the node where the printing process lives
------------------
     ethr =  1.13E-05,  avg # of iterations =  2.0

     total cpu time spent up to now is       63.8 secs

     WARNING: integrated charge=   180.00005764, expected=   180.00000000

     total energy              =   -2318.73497458 Ry
     estimated scf accuracy    <       2.82906177 Ry

     iteration # 52     ecut=    30.00 Ry     beta= 0.70
     Davidson diagonalization with overlap

---- Real-time Memory Report at c_bands before calling an iterative solver
           602 MiB given to the printing process from OS
             0 MiB allocation reported by mallinfo(arena+hblkhd)
        143451 MiB available memory on the node where the printing process lives
------------------
     ethr =  1.13E-05,  avg # of iterations =  2.0

     total cpu time spent up to now is       65.0 secs

     WARNING: integrated charge=   180.00070584, expected=   180.00000000

     total energy              =   -2318.75050343 Ry
     estimated scf accuracy    <       0.23655475 Ry

     iteration # 53     ecut=    30.00 Ry     beta= 0.70
     Davidson diagonalization with overlap

---- Real-time Memory Report at c_bands before calling an iterative solver
           602 MiB given to the printing process from OS
             0 MiB allocation reported by mallinfo(arena+hblkhd)
        143451 MiB available memory on the node where the printing process lives
------------------
     ethr =  1.13E-05,  avg # of iterations =  1.0

     total cpu time spent up to now is       66.0 secs

     WARNING: integrated charge=   180.00061770, expected=   180.00000000

     total energy              =   -2318.74234194 Ry
     estimated scf accuracy    <       2.22629071 Ry

     iteration # 54     ecut=    30.00 Ry     beta= 0.70
     Davidson diagonalization with overlap

---- Real-time Memory Report at c_bands before calling an iterative solver
           602 MiB given to the printing process from OS
             0 MiB allocation reported by mallinfo(arena+hblkhd)
        143451 MiB available memory on the node where the printing process lives
------------------
     ethr =  1.13E-05,  avg # of iterations =  2.0

     total cpu time spent up to now is       67.1 secs

     WARNING: integrated charge=   180.00278933, expected=   180.00000000

     total energy              =   -2318.72106554 Ry
     estimated scf accuracy    <       0.27547598 Ry

     iteration # 55     ecut=    30.00 Ry     beta= 0.70
     Davidson diagonalization with overlap

---- Real-time Memory Report at c_bands before calling an iterative solver
           602 MiB given to the printing process from OS
             0 MiB allocation reported by mallinfo(arena+hblkhd)
        143432 MiB available memory on the node where the printing process lives
------------------
     ethr =  1.13E-05,  avg # of iterations =  3.0

     total cpu time spent up to now is       68.4 secs

     WARNING: integrated charge=   180.00139793, expected=   180.00000000

     total energy              =   -2318.60980959 Ry
     estimated scf accuracy    <      10.09040750 Ry

     iteration # 56     ecut=    30.00 Ry     beta= 0.70
     Davidson diagonalization with overlap

---- Real-time Memory Report at c_bands before calling an iterative solver
           602 MiB given to the printing process from OS
             0 MiB allocation reported by mallinfo(arena+hblkhd)
        143465 MiB available memory on the node where the printing process lives
------------------
     ethr =  1.13E-05,  avg # of iterations =  3.0

     total cpu time spent up to now is       69.8 secs

     WARNING: integrated charge=   180.00124494, expected=   180.00000000

     total energy              =   -2318.74596617 Ry
     estimated scf accuracy    <       0.54666762 Ry

     iteration # 57     ecut=    30.00 Ry     beta= 0.70
     Davidson diagonalization with overlap

---- Real-time Memory Report at c_bands before calling an iterative solver
           602 MiB given to the printing process from OS
             0 MiB allocation reported by mallinfo(arena+hblkhd)
        143457 MiB available memory on the node where the printing process lives
------------------
     ethr =  1.13E-05,  avg # of iterations =  2.0

     total cpu time spent up to now is       70.9 secs

     WARNING: integrated charge=   180.00125535, expected=   180.00000000

     total energy              =   -2318.75027113 Ry
     estimated scf accuracy    <       1.28481420 Ry

     iteration # 58     ecut=    30.00 Ry     beta= 0.70
     Davidson diagonalization with overlap

---- Real-time Memory Report at c_bands before calling an iterative solver
           602 MiB given to the printing process from OS
             0 MiB allocation reported by mallinfo(arena+hblkhd)
        143437 MiB available memory on the node where the printing process lives
------------------
     ethr =  1.13E-05,  avg # of iterations =  2.0

     total cpu time spent up to now is       72.0 secs

     WARNING: integrated charge=   180.00169670, expected=   180.00000000

     total energy              =   -2318.73076543 Ry
     estimated scf accuracy    <       3.16215812 Ry

     iteration # 59     ecut=    30.00 Ry     beta= 0.70
     Davidson diagonalization with overlap

---- Real-time Memory Report at c_bands before calling an iterative solver
           602 MiB given to the printing process from OS
             0 MiB allocation reported by mallinfo(arena+hblkhd)
        143435 MiB available memory on the node where the printing process lives
------------------
     ethr =  1.13E-05,  avg # of iterations =  1.0

     total cpu time spent up to now is       73.0 secs

     WARNING: integrated charge=   180.00156574, expected=   180.00000000

     total energy              =   -2318.74468376 Ry
     estimated scf accuracy    <       0.70482666 Ry

     iteration # 60     ecut=    30.00 Ry     beta= 0.70
     Davidson diagonalization with overlap

---- Real-time Memory Report at c_bands before calling an iterative solver
           602 MiB given to the printing process from OS
             0 MiB allocation reported by mallinfo(arena+hblkhd)
        143434 MiB available memory on the node where the printing process lives
------------------
     ethr =  1.13E-05,  avg # of iterations =  2.0

     total cpu time spent up to now is       74.2 secs

     WARNING: integrated charge=   180.00184211, expected=   180.00000000

     total energy              =   -2318.74389373 Ry
     estimated scf accuracy    <       0.80791521 Ry

     iteration # 61     ecut=    30.00 Ry     beta= 0.70
     Davidson diagonalization with overlap

---- Real-time Memory Report at c_bands before calling an iterative solver
           602 MiB given to the printing process from OS
             0 MiB allocation reported by mallinfo(arena+hblkhd)
        143433 MiB available memory on the node where the printing process lives
------------------
     ethr =  1.13E-05,  avg # of iterations =  2.0

     total cpu time spent up to now is       75.3 secs

     WARNING: integrated charge=   180.00033918, expected=   180.00000000

     total energy              =   -2318.73973450 Ry
     estimated scf accuracy    <       1.56711339 Ry

     iteration # 62     ecut=    30.00 Ry     beta= 0.70
     Davidson diagonalization with overlap

---- Real-time Memory Report at c_bands before calling an iterative solver
           602 MiB given to the printing process from OS
             0 MiB allocation reported by mallinfo(arena+hblkhd)
        143435 MiB available memory on the node where the printing process lives
------------------
     ethr =  1.13E-05,  avg # of iterations =  2.0

     total cpu time spent up to now is       76.5 secs

     WARNING: integrated charge=   180.00030768, expected=   180.00000000

     total energy              =   -2318.74488604 Ry
     estimated scf accuracy    <       0.49536729 Ry

     iteration # 63     ecut=    30.00 Ry     beta= 0.70
     Davidson diagonalization with overlap

---- Real-time Memory Report at c_bands before calling an iterative solver
           602 MiB given to the printing process from OS
             0 MiB allocation reported by mallinfo(arena+hblkhd)
        143414 MiB available memory on the node where the printing process lives
------------------
     ethr =  1.13E-05,  avg # of iterations =  2.0

     total cpu time spent up to now is       77.6 secs

     WARNING: integrated charge=   180.00034463, expected=   180.00000000

     total energy              =   -2318.72916730 Ry
     estimated scf accuracy    <       2.98973512 Ry

     iteration # 64     ecut=    30.00 Ry     beta= 0.70
     Davidson diagonalization with overlap

---- Real-time Memory Report at c_bands before calling an iterative solver
           602 MiB given to the printing process from OS
             0 MiB allocation reported by mallinfo(arena+hblkhd)
        143414 MiB available memory on the node where the printing process lives
------------------
     ethr =  1.13E-05,  avg # of iterations =  2.0

     total cpu time spent up to now is       80.3 secs

     WARNING: integrated charge=   180.00030442, expected=   180.00000000

     total energy              =   -2318.73932091 Ry
     estimated scf accuracy    <       0.69838094 Ry

     iteration # 65     ecut=    30.00 Ry     beta= 0.70
     Davidson diagonalization with overlap

---- Real-time Memory Report at c_bands before calling an iterative solver
           602 MiB given to the printing process from OS
             0 MiB allocation reported by mallinfo(arena+hblkhd)
        143412 MiB available memory on the node where the printing process lives
------------------
     ethr =  1.13E-05,  avg # of iterations =  2.0

     total cpu time spent up to now is       81.5 secs

     WARNING: integrated charge=   180.00026438, expected=   180.00000000

     total energy              =   -2318.75808851 Ry
     estimated scf accuracy    <       0.09338467 Ry

     iteration # 66     ecut=    30.00 Ry     beta= 0.70
     Davidson diagonalization with overlap

---- Real-time Memory Report at c_bands before calling an iterative solver
           602 MiB given to the printing process from OS
             0 MiB allocation reported by mallinfo(arena+hblkhd)
        143411 MiB available memory on the node where the printing process lives
------------------
     ethr =  1.13E-05,  avg # of iterations =  2.0

     total cpu time spent up to now is       82.6 secs

     WARNING: integrated charge=   180.00022629, expected=   180.00000000

     total energy              =   -2318.72219078 Ry
     estimated scf accuracy    <       2.32918871 Ry

     iteration # 67     ecut=    30.00 Ry     beta= 0.70
     Davidson diagonalization with overlap

---- Real-time Memory Report at c_bands before calling an iterative solver
           602 MiB given to the printing process from OS
             0 MiB allocation reported by mallinfo(arena+hblkhd)
        143411 MiB available memory on the node where the printing process lives
------------------
     ethr =  1.13E-05,  avg # of iterations =  2.0

     total cpu time spent up to now is       83.7 secs

     WARNING: integrated charge=   180.00020176, expected=   180.00000000

     total energy              =   -2318.70627649 Ry
     estimated scf accuracy    <       5.09026815 Ry

     iteration # 68     ecut=    30.00 Ry     beta= 0.70
     Davidson diagonalization with overlap

---- Real-time Memory Report at c_bands before calling an iterative solver
           602 MiB given to the printing process from OS
             0 MiB allocation reported by mallinfo(arena+hblkhd)
        143408 MiB available memory on the node where the printing process lives
------------------
     ethr =  1.13E-05,  avg # of iterations =  2.0

     total cpu time spent up to now is       84.9 secs

     WARNING: integrated charge=   180.00012986, expected=   180.00000000

     total energy              =   -2318.72190601 Ry
     estimated scf accuracy    <       2.91046065 Ry

     iteration # 69     ecut=    30.00 Ry     beta= 0.70
     Davidson diagonalization with overlap

---- Real-time Memory Report at c_bands before calling an iterative solver
           602 MiB given to the printing process from OS
             0 MiB allocation reported by mallinfo(arena+hblkhd)
        143407 MiB available memory on the node where the printing process lives
------------------
     ethr =  1.13E-05,  avg # of iterations =  2.0

     total cpu time spent up to now is       86.1 secs

     WARNING: integrated charge=   180.00012687, expected=   180.00000000

     total energy              =   -2318.72065905 Ry
     estimated scf accuracy    <       3.83094912 Ry

     iteration # 70     ecut=    30.00 Ry     beta= 0.70
     Davidson diagonalization with overlap

---- Real-time Memory Report at c_bands before calling an iterative solver
           602 MiB given to the printing process from OS
             0 MiB allocation reported by mallinfo(arena+hblkhd)
        143407 MiB available memory on the node where the printing process lives
------------------
     ethr =  1.13E-05,  avg # of iterations =  2.0

     total cpu time spent up to now is       87.2 secs

     WARNING: integrated charge=   180.00008485, expected=   180.00000000

     total energy              =   -2318.74840128 Ry
     estimated scf accuracy    <       0.16615141 Ry

     iteration # 71     ecut=    30.00 Ry     beta= 0.70
     Davidson diagonalization with overlap

---- Real-time Memory Report at c_bands before calling an iterative solver
           602 MiB given to the printing process from OS
             0 MiB allocation reported by mallinfo(arena+hblkhd)
        143411 MiB available memory on the node where the printing process lives
------------------
     ethr =  1.13E-05,  avg # of iterations =  2.0

     total cpu time spent up to now is       88.3 secs

     WARNING: integrated charge=   180.00006733, expected=   180.00000000

     total energy              =   -2318.71240887 Ry
     estimated scf accuracy    <       4.67205649 Ry

     iteration # 72     ecut=    30.00 Ry     beta= 0.70
     Davidson diagonalization with overlap

---- Real-time Memory Report at c_bands before calling an iterative solver
           602 MiB given to the printing process from OS
             0 MiB allocation reported by mallinfo(arena+hblkhd)
        143411 MiB available memory on the node where the printing process lives
------------------
     ethr =  1.13E-05,  avg # of iterations =  2.0

     total cpu time spent up to now is       89.5 secs

     WARNING: integrated charge=   180.00006874, expected=   180.00000000

     total energy              =   -2318.74859095 Ry
     estimated scf accuracy    <       0.34652436 Ry

     iteration # 73     ecut=    30.00 Ry     beta= 0.70
     Davidson diagonalization with overlap

---- Real-time Memory Report at c_bands before calling an iterative solver
           602 MiB given to the printing process from OS
             0 MiB allocation reported by mallinfo(arena+hblkhd)
        143410 MiB available memory on the node where the printing process lives
------------------
     ethr =  1.13E-05,  avg # of iterations =  2.0

     total cpu time spent up to now is       90.6 secs

     WARNING: integrated charge=   180.00006037, expected=   180.00000000

     total energy              =   -2318.71531941 Ry
     estimated scf accuracy    <       4.54260143 Ry

     iteration # 74     ecut=    30.00 Ry     beta= 0.70
     Davidson diagonalization with overlap

---- Real-time Memory Report at c_bands before calling an iterative solver
           602 MiB given to the printing process from OS
             0 MiB allocation reported by mallinfo(arena+hblkhd)
        143440 MiB available memory on the node where the printing process lives
------------------
     ethr =  1.13E-05,  avg # of iterations =  2.0

     total cpu time spent up to now is       91.6 secs

     WARNING: integrated charge=   180.00003534, expected=   180.00000000

     total energy              =   -2318.75361891 Ry
     estimated scf accuracy    <       0.21599901 Ry

     iteration # 75     ecut=    30.00 Ry     beta= 0.70
     Davidson diagonalization with overlap

---- Real-time Memory Report at c_bands before calling an iterative solver
           602 MiB given to the printing process from OS
             0 MiB allocation reported by mallinfo(arena+hblkhd)
        143435 MiB available memory on the node where the printing process lives
------------------
     ethr =  1.13E-05,  avg # of iterations =  2.0

     total cpu time spent up to now is       92.7 secs

     WARNING: integrated charge=   180.00002681, expected=   180.00000000

     total energy              =   -2318.74869741 Ry
     estimated scf accuracy    <       0.41733154 Ry

     iteration # 76     ecut=    30.00 Ry     beta= 0.70
     Davidson diagonalization with overlap

---- Real-time Memory Report at c_bands before calling an iterative solver
           602 MiB given to the printing process from OS
             0 MiB allocation reported by mallinfo(arena+hblkhd)
        143435 MiB available memory on the node where the printing process lives
------------------
     ethr =  1.13E-05,  avg # of iterations =  2.0

     total cpu time spent up to now is       93.8 secs

     WARNING: integrated charge=   180.00002582, expected=   180.00000000

     total energy              =   -2318.72872179 Ry
     estimated scf accuracy    <       2.76202603 Ry

     iteration # 77     ecut=    30.00 Ry     beta= 0.70
     Davidson diagonalization with overlap

---- Real-time Memory Report at c_bands before calling an iterative solver
           602 MiB given to the printing process from OS
             0 MiB allocation reported by mallinfo(arena+hblkhd)
        143470 MiB available memory on the node where the printing process lives
------------------
     ethr =  1.13E-05,  avg # of iterations =  2.0

     total cpu time spent up to now is       94.8 secs

     WARNING: integrated charge=   180.00002102, expected=   180.00000000

     total energy              =   -2318.75167245 Ry
     estimated scf accuracy    <       0.51930673 Ry

     iteration # 78     ecut=    30.00 Ry     beta= 0.70
     Davidson diagonalization with overlap

---- Real-time Memory Report at c_bands before calling an iterative solver
           602 MiB given to the printing process from OS
             0 MiB allocation reported by mallinfo(arena+hblkhd)
        143441 MiB available memory on the node where the printing process lives
------------------
     ethr =  1.13E-05,  avg # of iterations =  2.0

     total cpu time spent up to now is       95.8 secs

     WARNING: integrated charge=   180.00002043, expected=   180.00000000

     total energy              =   -2318.71720166 Ry
     estimated scf accuracy    <       4.29840369 Ry

     iteration # 79     ecut=    30.00 Ry     beta= 0.70
     Davidson diagonalization with overlap

---- Real-time Memory Report at c_bands before calling an iterative solver
           602 MiB given to the printing process from OS
             0 MiB allocation reported by mallinfo(arena+hblkhd)
        143436 MiB available memory on the node where the printing process lives
------------------
     ethr =  1.13E-05,  avg # of iterations =  2.0

     total cpu time spent up to now is       96.8 secs

     total energy              =   -2318.74271813 Ry
     estimated scf accuracy    <       1.85372020 Ry

     iteration # 80     ecut=    30.00 Ry     beta= 0.70
     Davidson diagonalization with overlap

---- Real-time Memory Report at c_bands before calling an iterative solver
           602 MiB given to the printing process from OS
             0 MiB allocation reported by mallinfo(arena+hblkhd)
        143435 MiB available memory on the node where the printing process lives
------------------
     ethr =  1.13E-05,  avg # of iterations =  2.0

     total cpu time spent up to now is       97.9 secs

     total energy              =   -2318.74707849 Ry
     estimated scf accuracy    <       0.42440705 Ry

     iteration # 81     ecut=    30.00 Ry     beta= 0.70
     Davidson diagonalization with overlap

---- Real-time Memory Report at c_bands before calling an iterative solver
           602 MiB given to the printing process from OS
             0 MiB allocation reported by mallinfo(arena+hblkhd)
        143434 MiB available memory on the node where the printing process lives
------------------
     ethr =  1.13E-05,  avg # of iterations =  2.0

     total cpu time spent up to now is       98.9 secs

     total energy              =   -2318.73359050 Ry
     estimated scf accuracy    <       2.67726886 Ry

     iteration # 82     ecut=    30.00 Ry     beta= 0.70
     Davidson diagonalization with overlap

---- Real-time Memory Report at c_bands before calling an iterative solver
           602 MiB given to the printing process from OS
             0 MiB allocation reported by mallinfo(arena+hblkhd)
        143433 MiB available memory on the node where the printing process lives
------------------
     ethr =  1.13E-05,  avg # of iterations =  2.0

     total cpu time spent up to now is       99.9 secs

     total energy              =   -2318.75115599 Ry
     estimated scf accuracy    <       0.37581753 Ry

     iteration # 83     ecut=    30.00 Ry     beta= 0.70
     Davidson diagonalization with overlap

---- Real-time Memory Report at c_bands before calling an iterative solver
           602 MiB given to the printing process from OS
             0 MiB allocation reported by mallinfo(arena+hblkhd)
        143466 MiB available memory on the node where the printing process lives
------------------
     ethr =  1.13E-05,  avg # of iterations =  2.0

     total cpu time spent up to now is      100.9 secs

     total energy              =   -2318.73644970 Ry
     estimated scf accuracy    <       2.78903341 Ry

     iteration # 84     ecut=    30.00 Ry     beta= 0.70
     Davidson diagonalization with overlap

---- Real-time Memory Report at c_bands before calling an iterative solver
           602 MiB given to the printing process from OS
             0 MiB allocation reported by mallinfo(arena+hblkhd)
        143461 MiB available memory on the node where the printing process lives
------------------
     ethr =  1.13E-05,  avg # of iterations =  2.0

     total cpu time spent up to now is      102.0 secs

     total energy              =   -2318.74574961 Ry
     estimated scf accuracy    <       0.56958179 Ry

     iteration # 85     ecut=    30.00 Ry     beta= 0.70
     Davidson diagonalization with overlap

---- Real-time Memory Report at c_bands before calling an iterative solver
           602 MiB given to the printing process from OS
             0 MiB allocation reported by mallinfo(arena+hblkhd)
        143464 MiB available memory on the node where the printing process lives
------------------
     ethr =  1.13E-05,  avg # of iterations =  2.0

     total cpu time spent up to now is      103.2 secs

     total energy              =   -2318.75068842 Ry
     estimated scf accuracy    <       0.22062298 Ry

     iteration # 86     ecut=    30.00 Ry     beta= 0.70
     Davidson diagonalization with overlap

---- Real-time Memory Report at c_bands before calling an iterative solver
           602 MiB given to the printing process from OS
             0 MiB allocation reported by mallinfo(arena+hblkhd)
        143464 MiB available memory on the node where the printing process lives
------------------
     ethr =  1.13E-05,  avg # of iterations =  2.0

     total cpu time spent up to now is      104.2 secs

     total energy              =   -2318.71820899 Ry
     estimated scf accuracy    <       3.02923256 Ry

     iteration # 87     ecut=    30.00 Ry     beta= 0.70
     Davidson diagonalization with overlap

---- Real-time Memory Report at c_bands before calling an iterative solver
           602 MiB given to the printing process from OS
             0 MiB allocation reported by mallinfo(arena+hblkhd)
        143462 MiB available memory on the node where the printing process lives
------------------
     ethr =  1.13E-05,  avg # of iterations =  2.0

     total cpu time spent up to now is      105.3 secs

     total energy              =   -2318.72549687 Ry
     estimated scf accuracy    <       2.23137428 Ry

     iteration # 88     ecut=    30.00 Ry     beta= 0.70
     Davidson diagonalization with overlap

---- Real-time Memory Report at c_bands before calling an iterative solver
           602 MiB given to the printing process from OS
             0 MiB allocation reported by mallinfo(arena+hblkhd)
        143459 MiB available memory on the node where the printing process lives
------------------
     ethr =  1.13E-05,  avg # of iterations =  2.0

     total cpu time spent up to now is      106.4 secs

     total energy              =   -2318.69698262 Ry
     estimated scf accuracy    <       6.17153257 Ry

     iteration # 89     ecut=    30.00 Ry     beta= 0.70
     Davidson diagonalization with overlap

---- Real-time Memory Report at c_bands before calling an iterative solver
           602 MiB given to the printing process from OS
             0 MiB allocation reported by mallinfo(arena+hblkhd)
        143488 MiB available memory on the node where the printing process lives
------------------
     ethr =  1.13E-05,  avg # of iterations =  2.0

     total cpu time spent up to now is      107.6 secs

     total energy              =   -2318.72502352 Ry
     estimated scf accuracy    <       3.31992042 Ry

     iteration # 90     ecut=    30.00 Ry     beta= 0.70
     Davidson diagonalization with overlap

---- Real-time Memory Report at c_bands before calling an iterative solver
           602 MiB given to the printing process from OS
             0 MiB allocation reported by mallinfo(arena+hblkhd)
        143482 MiB available memory on the node where the printing process lives
------------------
     ethr =  1.13E-05,  avg # of iterations =  2.0

     total cpu time spent up to now is      108.7 secs

     total energy              =   -2318.74387114 Ry
     estimated scf accuracy    <       0.46936274 Ry

     iteration # 91     ecut=    30.00 Ry     beta= 0.70
     Davidson diagonalization with overlap

---- Real-time Memory Report at c_bands before calling an iterative solver
           602 MiB given to the printing process from OS
             0 MiB allocation reported by mallinfo(arena+hblkhd)
        143482 MiB available memory on the node where the printing process lives
------------------
     ethr =  1.13E-05,  avg # of iterations =  2.0

     total cpu time spent up to now is      109.8 secs

     total energy              =   -2318.70445922 Ry
     estimated scf accuracy    <       5.52662153 Ry

     iteration # 92     ecut=    30.00 Ry     beta= 0.70
     Davidson diagonalization with overlap

---- Real-time Memory Report at c_bands before calling an iterative solver
           606 MiB given to the printing process from OS
             0 MiB allocation reported by mallinfo(arena+hblkhd)
        143477 MiB available memory on the node where the printing process lives
------------------
     ethr =  1.13E-05,  avg # of iterations =  2.0

     total cpu time spent up to now is      111.0 secs

     total energy              =   -2318.74262448 Ry
     estimated scf accuracy    <       0.49873834 Ry

     iteration # 93     ecut=    30.00 Ry     beta= 0.70
     Davidson diagonalization with overlap

---- Real-time Memory Report at c_bands before calling an iterative solver
           606 MiB given to the printing process from OS
             0 MiB allocation reported by mallinfo(arena+hblkhd)
        143480 MiB available memory on the node where the printing process lives
------------------
     ethr =  1.13E-05,  avg # of iterations =  2.0

     total cpu time spent up to now is      112.2 secs

     total energy              =   -2318.71221011 Ry
     estimated scf accuracy    <       4.93775944 Ry

     iteration # 94     ecut=    30.00 Ry     beta= 0.70
     Davidson diagonalization with overlap

---- Real-time Memory Report at c_bands before calling an iterative solver
           606 MiB given to the printing process from OS
             0 MiB allocation reported by mallinfo(arena+hblkhd)
        143480 MiB available memory on the node where the printing process lives
------------------
     ethr =  1.13E-05,  avg # of iterations =  2.0

     total cpu time spent up to now is      113.4 secs

     total energy              =   -2318.74731286 Ry
     estimated scf accuracy    <       0.48413944 Ry

     iteration # 95     ecut=    30.00 Ry     beta= 0.70
     Davidson diagonalization with overlap

---- Real-time Memory Report at c_bands before calling an iterative solver
           606 MiB given to the printing process from OS
             0 MiB allocation reported by mallinfo(arena+hblkhd)
        143480 MiB available memory on the node where the printing process lives
------------------
     ethr =  1.13E-05,  avg # of iterations =  2.0

     total cpu time spent up to now is      114.5 secs

     total energy              =   -2318.73046550 Ry
     estimated scf accuracy    <       0.82766875 Ry

     iteration # 96     ecut=    30.00 Ry     beta= 0.70
     Davidson diagonalization with overlap

---- Real-time Memory Report at c_bands before calling an iterative solver
           606 MiB given to the printing process from OS
             0 MiB allocation reported by mallinfo(arena+hblkhd)
        143480 MiB available memory on the node where the printing process lives
------------------
     ethr =  1.13E-05,  avg # of iterations =  2.0

     total cpu time spent up to now is      115.7 secs

     total energy              =   -2318.70852930 Ry
     estimated scf accuracy    <       3.13386419 Ry

     iteration # 97     ecut=    30.00 Ry     beta= 0.70
     Davidson diagonalization with overlap

---- Real-time Memory Report at c_bands before calling an iterative solver
           606 MiB given to the printing process from OS
             0 MiB allocation reported by mallinfo(arena+hblkhd)
        143481 MiB available memory on the node where the printing process lives
------------------
     ethr =  1.13E-05,  avg # of iterations =  2.0

     total cpu time spent up to now is      116.8 secs

     total energy              =   -2318.71012944 Ry
     estimated scf accuracy    <       3.78016588 Ry

     iteration # 98     ecut=    30.00 Ry     beta= 0.70
     Davidson diagonalization with overlap

---- Real-time Memory Report at c_bands before calling an iterative solver
           606 MiB given to the printing process from OS
             0 MiB allocation reported by mallinfo(arena+hblkhd)
        143484 MiB available memory on the node where the printing process lives
------------------
     ethr =  1.13E-05,  avg # of iterations =  2.0

     total cpu time spent up to now is      118.0 secs

     total energy              =   -2318.71268894 Ry
     estimated scf accuracy    <       4.60426313 Ry

     iteration # 99     ecut=    30.00 Ry     beta= 0.70
     Davidson diagonalization with overlap

---- Real-time Memory Report at c_bands before calling an iterative solver
           606 MiB given to the printing process from OS
             0 MiB allocation reported by mallinfo(arena+hblkhd)
        143461 MiB available memory on the node where the printing process lives
------------------
     ethr =  1.13E-05,  avg # of iterations =  2.0

     total cpu time spent up to now is      119.2 secs

     total energy              =   -2318.70555816 Ry
     estimated scf accuracy    <       4.37342416 Ry

     iteration #100     ecut=    30.00 Ry     beta= 0.70
     Davidson diagonalization with overlap

---- Real-time Memory Report at c_bands before calling an iterative solver
           606 MiB given to the printing process from OS
             0 MiB allocation reported by mallinfo(arena+hblkhd)
        143461 MiB available memory on the node where the printing process lives
------------------
     ethr =  1.13E-05,  avg # of iterations =  2.0

     total cpu time spent up to now is      121.7 secs

     total energy              =   -2318.73956531 Ry
     estimated scf accuracy    <       0.68115444 Ry

     End of self-consistent calculation

     convergence NOT achieved after 100 iterations: stopping

     Writing config to output data dir new_calculations/myprefix.save/
     Message from routine punch:
     wavefunctions written to file
 
     init_run     :    120.92s CPU      5.87s WALL (       1 calls)
     electrons    :   3532.31s CPU    115.78s WALL (       1 calls)

     Called by init_run:
     wfcinit      :     29.92s CPU      0.96s WALL (       1 calls)
     wfcinit:atom :      0.08s CPU      0.00s WALL (       1 calls)
     wfcinit:wfcr :     29.36s CPU      0.94s WALL (       1 calls)
     potinit      :     19.52s CPU      0.63s WALL (       1 calls)
     hinit0       :     68.32s CPU      4.14s WALL (       1 calls)

     Called by electrons:
     c_bands      :   2260.33s CPU     71.80s WALL (     100 calls)
     sum_band     :    615.75s CPU     22.43s WALL (     100 calls)
     v_of_rho     :     62.25s CPU      2.03s WALL (     101 calls)
     v_h          :      6.05s CPU      0.20s WALL (     101 calls)
     v_xc         :     55.95s CPU      1.83s WALL (     101 calls)
     newd         :    188.79s CPU      6.31s WALL (     101 calls)
     PAW_pot      :    365.40s CPU     11.90s WALL (     101 calls)
     mix_rho      :     25.01s CPU      0.82s WALL (     100 calls)

     Called by c_bands:
     init_us_2    :      2.61s CPU      0.09s WALL (     201 calls)
     init_us_2:cp :      2.32s CPU      0.08s WALL (     201 calls)
     regterg      :   2245.26s CPU     71.31s WALL (     100 calls)

     Called by sum_band:
     sum_band:wei :      0.48s CPU      0.02s WALL (     100 calls)
     sum_band:loo :    443.10s CPU     14.05s WALL (     100 calls)
     sum_band:buf :      0.07s CPU      0.00s WALL (     100 calls)
     sum_band:ini :      1.38s CPU      0.05s WALL (     100 calls)
     sum_band:cal :      1.46s CPU      0.05s WALL (     100 calls)
     sum_band:bec :      0.80s CPU      0.03s WALL (     100 calls)
     addusdens    :    162.30s CPU      8.04s WALL (     100 calls)
     addusd:skk   :      1.72s CPU      0.07s WALL (     300 calls)
     addusd:dgemm :     14.56s CPU      3.23s WALL (     300 calls)
     addusd:qvan2 :    136.13s CPU      4.39s WALL (     300 calls)

     Called by *egterg:
     rdiaghg      :     93.34s CPU      3.06s WALL (     292 calls)
     regterg:over :      3.70s CPU      0.12s WALL (     192 calls)
     regterg:upda :      5.13s CPU      0.17s WALL (     192 calls)
     regterg:last :     13.29s CPU      0.44s WALL (     177 calls)
     h_psi        :   2118.31s CPU     67.10s WALL (     293 calls)
     s_psi        :      2.05s CPU      0.07s WALL (     293 calls)
     g_psi        :      0.35s CPU      0.01s WALL (     192 calls)

     Called by h_psi:
     h_psi:calbec :      4.41s CPU      0.15s WALL (     293 calls)
     vloc_psi     :   2108.85s CPU     66.79s WALL (     293 calls)
     add_vuspsi   :      2.69s CPU      0.09s WALL (     293 calls)

     General routines
     calbec       :      5.27s CPU      0.18s WALL (     393 calls)
     fft          :     68.08s CPU      2.64s WALL (    1111 calls)
     ffts         :     14.68s CPU      0.47s WALL (     201 calls)
     fftw         :   2328.18s CPU     73.54s WALL (   29748 calls)
     interpolate  :     19.35s CPU      0.63s WALL (     101 calls)
     davcio       :      1.62s CPU      0.35s WALL (      19 calls)
 
     Parallel routines

     PAW routines
     PAW_pot      :    365.40s CPU     11.90s WALL (     101 calls)
 
     PWSCF        :      1h 0m CPU   2m 2.33s WALL

 
   This run was terminated on:  13:36: 5  21May2023            

=------------------------------------------------------------------------------=
   JOB DONE.
=------------------------------------------------------------------------------=
