
     Program PWSCF v.7.0 starts on 21May2023 at  1:30:56 

     This program is part of the open-source Quantum ESPRESSO suite
     for quantum simulation of materials; please cite
         "P. Giannozzi et al., J. Phys.:Condens. Matter 21 395502 (2009);
         "P. Giannozzi et al., J. Phys.:Condens. Matter 29 465901 (2017);
         "P. Giannozzi et al., J. Chem. Phys. 152 154105 (2020);
          URL http://www.quantum-espresso.org", 
     in publications or presentations arising from this work. More details at
     http://www.quantum-espresso.org/quote

     Parallel version (MPI & OpenMP), running on      32 processor cores
     Number of MPI processes:                 1
     Threads/MPI process:                    32

     MPI processes distributed on     1 nodes
     141102 MiB available memory on the printing compute node when the environment starts
 
     Reading input from espresso_1897.pwi
Warning: card &CELL ignored
Warning: card / ignored

     Current dimensions of program PWSCF are:
     Max number of different atomic species (ntypx) = 10
     Max number of k-points (npk) =  40000
     Max angular momentum in pseudopotentials (lmaxx) =  4
     file O.pbe-n-kjpaw_psl.0.1.UPF: wavefunction(s)  2P renormalized

     gamma-point specific algorithms are used
     Message from routine setup:
     using ibrav=0 with symmetry is DISCOURAGED, use correct ibrav instead

     Subspace diagonalization in iterative solution of the eigenvalue problem:
     a serial algorithm will be used

 
     G-vector sticks info
     --------------------
     sticks:   dense  smooth     PW     G-vecs:    dense   smooth      PW
     Sum        2187    1091    277               103973    36793    4605
 
     Using Slab Decomposition
 


     bravais-lattice index     =            0
     lattice parameter (alat)  =      12.2166  a.u.
     unit-cell volume          =    1657.6719 (a.u.)^3
     number of atoms/cell      =           16
     number of atomic types    =            4
     number of electrons       =        80.00
     number of Kohn-Sham states=           48
     kinetic-energy cutoff     =      30.0000  Ry
     charge density cutoff     =     240.0000  Ry
     scf convergence threshold =      1.0E-06
     mixing beta               =       0.7000
     number of iterations used =            8  plain     mixing
     Exchange-correlation= SLA  PW   PBX  PBC
                           (   1   4   3   4   0   0   0)

     celldm(1)=  12.216598  celldm(2)=   0.000000  celldm(3)=   0.000000
     celldm(4)=   0.000000  celldm(5)=   0.000000  celldm(6)=   0.000000

     crystal axes: (cart. coord. in units of alat)
               a(1) = (   1.000000   0.000000   0.000000 )  
               a(2) = (   0.000000   0.765784   0.000000 )  
               a(3) = (   0.000000   0.388629   1.187248 )  

     reciprocal axes: (cart. coord. in units 2 pi/alat)
               b(1) = (  1.000000  0.000000  0.000000 )  
               b(2) = (  0.000000  1.305851 -0.427452 )  
               b(3) = (  0.000000  0.000000  0.842284 )  


     PseudoPot. # 1 for Cs read from file:
     /home/pragov/projects/rrg-bengioy-ad/pragov/crystal_structure_design/SSSP/Cs_pbe_v1.uspp.F.UPF
     MD5 check sum: 3476d69cb178dfad3ffaa59df4e07ca4
     Pseudo is Ultrasoft + core correction, Zval =  9.0
     Generated by new atomic code, or converted to UPF format
     Using radial grid of  905 points,  6 beta functions with: 
                l(1) =   0
                l(2) =   0
                l(3) =   1
                l(4) =   1
                l(5) =   2
                l(6) =   2
     Q(r) pseudized with  6 coefficients,  rinner =    1.500   1.500   1.500
                                                       1.500   1.500

     PseudoPot. # 2 for P  read from file:
     /home/pragov/projects/rrg-bengioy-ad/pragov/crystal_structure_design/SSSP/P.pbe-n-rrkjus_psl.1.0.0.UPF
     MD5 check sum: 8b930f418f0a4573dca56cd030ffe088
     Pseudo is Ultrasoft + core correction, Zval =  5.0
     Generated using "atomic" code by A. Dal Corso  v.5.1
     Using radial grid of 1147 points,  6 beta functions with: 
                l(1) =   0
                l(2) =   0
                l(3) =   1
                l(4) =   1
                l(5) =   2
                l(6) =   2
     Q(r) pseudized with 0 coefficients 


     PseudoPot. # 3 for H  read from file:
     /home/pragov/projects/rrg-bengioy-ad/pragov/crystal_structure_design/SSSP/H.pbe-rrkjus_psl.1.0.0.UPF
     MD5 check sum: f52b6d4d1c606e5624b1dc7b2218f220
     Pseudo is Ultrasoft, Zval =  1.0
     Generated using "atomic" code by A. Dal Corso  v.5.1
     Using radial grid of  929 points,  2 beta functions with: 
                l(1) =   0
                l(2) =   0
     Q(r) pseudized with 0 coefficients 


     PseudoPot. # 4 for O  read from file:
     /home/pragov/projects/rrg-bengioy-ad/pragov/crystal_structure_design/SSSP/O.pbe-n-kjpaw_psl.0.1.UPF
     MD5 check sum: 0234752ac141de4415c5fc33072bef88
     Pseudo is Projector augmented-wave + core cor, Zval =  6.0
     Generated using "atomic" code by A. Dal Corso  v.5.0.99 svn rev. 10869
     Shape of augmentation charge: BESSEL
     Using radial grid of 1095 points,  4 beta functions with: 
                l(1) =   0
                l(2) =   0
                l(3) =   1
                l(4) =   1
     Q(r) pseudized with 0 coefficients 


     atomic species   valence    mass     pseudopotential
        Cs             9.00   132.90545     Cs( 1.00)
        P              5.00    30.97376     P ( 1.00)
        H              1.00     1.00800     H ( 1.00)
        O              6.00    15.99900     O ( 1.00)

      2 Sym. Ops. (no inversion) found ( 1 have fractional translation)


                                    s                        frac. trans.

      isym =  1     identity                                     

 cryst.   s( 1) = (     1          0          0      )
                  (     0          1          0      )
                  (     0          0          1      )

 cart.    s( 1) = (  1.0000000  0.0000000  0.0000000 )
                  (  0.0000000  1.0000000 -0.0000000 )
                  (  0.0000000  0.0000000  1.0000000 )


      isym =  2     180 deg rotation - cart. axis [1,0,0]        

 cryst.   s( 2) = (     1          0          0      )    f =(  0.5000000 )
                  (     0         -1          0      )       ( -0.0000000 )
                  (     0          0         -1      )       ( -0.0000000 )

 cart.    s( 2) = (  1.0000000  0.0000000  0.0000000 )    f =(  0.5000000 )
                  (  0.0000000 -1.0000000  0.0000000 )       ( -0.0000000 )
                  (  0.0000000  0.0000000 -1.0000000 )       ( -0.0000000 )


   Cartesian axes

     site n.     atom                  positions (alat units)
         1           Cs  tau(   1) = (   0.7788070   0.8491355   0.8713034  )
         2           Cs  tau(   2) = (   0.2788070   0.3052777   0.3159445  )
         3           P   tau(   3) = (   0.7705940   0.7020039   0.2824890  )
         4           P   tau(   4) = (   0.2705940   0.4524093   0.9047589  )
         5           H   tau(   5) = (   0.0018500   0.7601375   0.0105166  )
         6           H   tau(   6) = (   0.5018500   0.3942757   1.1767313  )
         7           H   tau(   7) = (   0.7891300   0.3839936   0.4176619  )
         8           H   tau(   8) = (   0.2891300   0.7704196   0.7695860  )
         9           O   tau(   9) = (   0.9645380   0.6621291   0.1366890  )
        10           O   tau(  10) = (   0.4645380   0.4922841   1.0505589  )
        11           O   tau(  11) = (   0.5688290   0.6549917   0.1663287  )
        12           O   tau(  12) = (   0.0688290   0.4994215   1.0209192  )
        13           O   tau(  13) = (   0.2794780   1.0089515   0.8005233  )
        14           O   tau(  14) = (   0.7794780   0.1454617   0.3867246  )
        15           O   tau(  15) = (   0.8032740   0.5344498   0.4609704  )
        16           O   tau(  16) = (   0.3032740   0.6199634   0.7262775  )

   Crystallographic axes

     site n.     atom                  positions (cryst. coord.)
         1           Cs  tau(   1) = (  0.7788070  0.7364040  0.7338850  )
         2           Cs  tau(   2) = (  0.2788070  0.2635960  0.2661150  )
         3           P   tau(   3) = (  0.7705940  0.7959620  0.2379360  )
         4           P   tau(   4) = (  0.2705940  0.2040380  0.7620640  )
         5           H   tau(   5) = (  0.0018500  0.9881310  0.0088580  )
         6           H   tau(   6) = (  0.5018500  0.0118690  0.9911420  )
         7           H   tau(   7) = (  0.7891300  0.3229080  0.3517900  )
         8           H   tau(   8) = (  0.2891300  0.6770920  0.6482100  )
         9           O   tau(   9) = (  0.9645380  0.8062140  0.1151310  )
        10           O   tau(  10) = (  0.4645380  0.1937860  0.8848690  )
        11           O   tau(  11) = (  0.5688290  0.7842240  0.1400960  )
        12           O   tau(  12) = (  0.0688290  0.2157760  0.8599040  )
        13           O   tau(  13) = (  0.2794780  0.9753550  0.6742680  )
        14           O   tau(  14) = (  0.7794780  0.0246450  0.3257320  )
        15           O   tau(  15) = (  0.8032740  0.5008690  0.3882680  )
        16           O   tau(  16) = (  0.3032740  0.4991310  0.6117320  )

     number of k points=     1  Methfessel-Paxton smearing, width (Ry)=  0.0010
                       cart. coord. in units 2pi/alat
        k(    1) = (   0.0000000   0.0000000   0.0000000), wk =   2.0000000

                       cryst. coord.
        k(    1) = (   0.0000000   0.0000000   0.0000000), wk =   2.0000000

     Dense  grid:    51987 G-vectors     FFT dimensions: (  64,  48,  75)

     Smooth grid:    18397 G-vectors     FFT dimensions: (  48,  36,  54)

     Dynamical RAM for                 wfc:       1.68 MB

     Dynamical RAM for     wfc (w. buffer):       1.68 MB

     Dynamical RAM for           str. fact:       3.17 MB

     Dynamical RAM for           local pot:       0.00 MB

     Dynamical RAM for          nlocal pot:       5.05 MB

     Dynamical RAM for                qrad:       4.98 MB

     Dynamical RAM for          rho,v,vnew:       7.65 MB

     Dynamical RAM for               rhoin:       2.55 MB

     Dynamical RAM for            rho*nmix:      12.69 MB

     Dynamical RAM for           G-vectors:       3.12 MB

     Dynamical RAM for          h,s,v(r/c):       0.21 MB

     Dynamical RAM for          <psi|beta>:       0.05 MB

     Dynamical RAM for                 psi:       3.37 MB

     Dynamical RAM for                hpsi:       3.37 MB

     Dynamical RAM for                spsi:       3.37 MB

     Dynamical RAM for      wfcinit/wfcrot:       5.03 MB

     Dynamical RAM for           addusdens:     153.89 MB

     Dynamical RAM for          addusforce:     165.43 MB

     Dynamical RAM for         addusstress:     159.44 MB

     Estimated static dynamical RAM per process >      40.96 MB

     Estimated max dynamical RAM per process >     219.08 MB

     Check: negative core charge=   -0.000009

     Initial potential from superposition of free atoms

     starting charge      79.9209, renormalised to      80.0000
     Starting wfcs are   70 randomized atomic wfcs
     Checking if some PAW data can be deallocated... 

     total cpu time spent up to now is        5.2 secs

     Self-consistent Calculation

     iteration #  1     ecut=    30.00 Ry     beta= 0.70
     Davidson diagonalization with overlap

---- Real-time Memory Report at c_bands before calling an iterative solver
           588 MiB given to the printing process from OS
             0 MiB allocation reported by mallinfo(arena+hblkhd)
        140717 MiB available memory on the node where the printing process lives
------------------
     ethr =  1.00E-02,  avg # of iterations =  3.0

     total cpu time spent up to now is        6.1 secs

     total energy              =    -491.49269130 Ry
     estimated scf accuracy    <       2.44991605 Ry

     iteration #  2     ecut=    30.00 Ry     beta= 0.70
     Davidson diagonalization with overlap

---- Real-time Memory Report at c_bands before calling an iterative solver
           717 MiB given to the printing process from OS
             0 MiB allocation reported by mallinfo(arena+hblkhd)
        140703 MiB available memory on the node where the printing process lives
------------------
     ethr =  3.06E-03,  avg # of iterations =  3.0

     total cpu time spent up to now is        7.0 secs

     total energy              =    -492.22785114 Ry
     estimated scf accuracy    <       1.76641974 Ry

     iteration #  3     ecut=    30.00 Ry     beta= 0.70
     Davidson diagonalization with overlap

---- Real-time Memory Report at c_bands before calling an iterative solver
           741 MiB given to the printing process from OS
             0 MiB allocation reported by mallinfo(arena+hblkhd)
        140674 MiB available memory on the node where the printing process lives
------------------
     ethr =  2.21E-03,  avg # of iterations =  2.0

     total cpu time spent up to now is        7.8 secs

     total energy              =    -492.53423446 Ry
     estimated scf accuracy    <       0.03057591 Ry

     iteration #  4     ecut=    30.00 Ry     beta= 0.70
     Davidson diagonalization with overlap

---- Real-time Memory Report at c_bands before calling an iterative solver
           746 MiB given to the printing process from OS
             0 MiB allocation reported by mallinfo(arena+hblkhd)
        140664 MiB available memory on the node where the printing process lives
------------------
     ethr =  3.82E-05,  avg # of iterations = 13.0

     total cpu time spent up to now is        8.8 secs

     total energy              =    -492.54752170 Ry
     estimated scf accuracy    <       0.02474056 Ry

     iteration #  5     ecut=    30.00 Ry     beta= 0.70
     Davidson diagonalization with overlap

---- Real-time Memory Report at c_bands before calling an iterative solver
           747 MiB given to the printing process from OS
             0 MiB allocation reported by mallinfo(arena+hblkhd)
        140663 MiB available memory on the node where the printing process lives
------------------
     ethr =  3.09E-05,  avg # of iterations =  2.0

     total cpu time spent up to now is        9.6 secs

     total energy              =    -492.54954245 Ry
     estimated scf accuracy    <       0.00320346 Ry

     iteration #  6     ecut=    30.00 Ry     beta= 0.70
     Davidson diagonalization with overlap

---- Real-time Memory Report at c_bands before calling an iterative solver
           747 MiB given to the printing process from OS
             0 MiB allocation reported by mallinfo(arena+hblkhd)
        140664 MiB available memory on the node where the printing process lives
------------------
     ethr =  4.00E-06,  avg # of iterations =  5.0

     total cpu time spent up to now is       10.4 secs

     total energy              =    -492.55026799 Ry
     estimated scf accuracy    <       0.00012536 Ry

     iteration #  7     ecut=    30.00 Ry     beta= 0.70
     Davidson diagonalization with overlap

---- Real-time Memory Report at c_bands before calling an iterative solver
           747 MiB given to the printing process from OS
             0 MiB allocation reported by mallinfo(arena+hblkhd)
        140672 MiB available memory on the node where the printing process lives
------------------
     ethr =  1.57E-07,  avg # of iterations =  3.0

     total cpu time spent up to now is       11.3 secs

     total energy              =    -492.55030309 Ry
     estimated scf accuracy    <       0.00002511 Ry

     iteration #  8     ecut=    30.00 Ry     beta= 0.70
     Davidson diagonalization with overlap

---- Real-time Memory Report at c_bands before calling an iterative solver
           747 MiB given to the printing process from OS
             0 MiB allocation reported by mallinfo(arena+hblkhd)
        140672 MiB available memory on the node where the printing process lives
------------------
     ethr =  3.14E-08,  avg # of iterations =  5.0

     total cpu time spent up to now is       12.1 secs

     total energy              =    -492.55030986 Ry
     estimated scf accuracy    <       0.00000269 Ry

     iteration #  9     ecut=    30.00 Ry     beta= 0.70
     Davidson diagonalization with overlap

---- Real-time Memory Report at c_bands before calling an iterative solver
           747 MiB given to the printing process from OS
             0 MiB allocation reported by mallinfo(arena+hblkhd)
        140672 MiB available memory on the node where the printing process lives
------------------
     ethr =  3.37E-09,  avg # of iterations =  2.0

     total cpu time spent up to now is       12.9 secs

     End of self-consistent calculation

          k = 0.0000 0.0000 0.0000 (  2303 PWs)   bands (ev):

   -18.4454 -18.2343 -16.7863 -16.7667 -16.6063 -16.5261 -15.8380 -15.4478
   -15.1177 -15.0911  -7.3491  -6.7867  -5.1941  -5.1873  -3.8767  -3.7720
    -3.7592  -3.6687  -3.6286  -3.6246  -3.0762  -2.2954  -2.1917  -2.0937
    -1.0206  -0.8223  -0.6719  -0.4900  -0.0151   0.1091   0.3281   0.4235
     0.6886   0.7149   1.3974   1.4902   1.6722   1.7143   2.0146   2.0955
     7.2077   9.0953   9.2690   9.3914   9.4077   9.9812  10.7892  10.8727

     occupation numbers 
     1.0000   1.0000   1.0000   1.0000   1.0000   1.0000   1.0000   1.0000
     1.0000   1.0000   1.0000   1.0000   1.0000   1.0000   1.0000   1.0000
     1.0000   1.0000   1.0000   1.0000   1.0000   1.0000   1.0000   1.0000
     1.0000   1.0000   1.0000   1.0000   1.0000   1.0000   1.0000   1.0000
     1.0000   1.0000   1.0000   1.0000   1.0000   1.0000   1.0000   1.0000
    -0.0000  -0.0000  -0.0000  -0.0000  -0.0000  -0.0000  -0.0000  -0.0000

     the Fermi energy is     3.6112 ev

!    total energy              =    -492.55031041 Ry
     estimated scf accuracy    <       0.00000024 Ry
     smearing contrib. (-TS)   =       0.00000000 Ry
     internal energy E=F+TS    =    -492.55031041 Ry

     The total energy is F=E-TS. E is the sum of the following terms:
     one-electron contribution =    -202.84253343 Ry
     hartree contribution      =     140.09549229 Ry
     xc contribution           =    -132.74714350 Ry
     ewald contribution        =    -220.96581398 Ry
     one-center paw contrib.   =     -76.09031178 Ry
      -> PAW hartree energy AE =     253.92815103 Ry
      -> PAW hartree energy PS =    -253.01173393 Ry
      -> PAW xc energy AE      =    -139.91213353 Ry
      -> PAW xc energy PS      =      62.90540465 Ry
      -> total E_H with PAW    =     141.01190939 Ry
      -> total E_XC with PAW   =    -209.75387239 Ry

     convergence has been achieved in   9 iterations

     Forces acting on atoms (cartesian axes, Ry/au):

     atom    1 type  1   force =     0.00233371   -0.00486188    0.00717535
     atom    2 type  1   force =     0.00233371    0.00486188   -0.00717535
     atom    3 type  2   force =    -0.00246997    0.01882927    0.00184400
     atom    4 type  2   force =    -0.00246997   -0.01882927   -0.00184400
     atom    5 type  3   force =    -0.00029498    0.00342047   -0.00279908
     atom    6 type  3   force =    -0.00029498   -0.00342047    0.00279908
     atom    7 type  3   force =     0.00320251    0.03300068    0.01388425
     atom    8 type  3   force =     0.00320251   -0.03300068   -0.01388425
     atom    9 type  4   force =     0.01162113   -0.00956804    0.00279044
     atom   10 type  4   force =     0.01162113    0.00956804   -0.00279044
     atom   11 type  4   force =    -0.01178178   -0.00432582   -0.00113339
     atom   12 type  4   force =    -0.01178178    0.00432582    0.00113339
     atom   13 type  4   force =    -0.01448418    0.02626302    0.04903677
     atom   14 type  4   force =    -0.01448418   -0.02626302   -0.04903677
     atom   15 type  4   force =     0.01187357   -0.02377742    0.04024709
     atom   16 type  4   force =     0.01187357    0.02377742   -0.04024709
     The non-local contrib.  to forces
     atom    1 type  1   force =    -0.00278822    0.00997998    0.00128768
     atom    2 type  1   force =    -0.00278822   -0.00997998   -0.00128768
     atom    3 type  2   force =     0.10446020   -0.11777718    0.06069808
     atom    4 type  2   force =     0.10446020    0.11777718   -0.06069808
     atom    5 type  3   force =    -0.01606386   -0.03718768    0.04937159
     atom    6 type  3   force =    -0.01606386    0.03718768   -0.04937159
     atom    7 type  3   force =     0.00782801    0.09149810    0.02296205
     atom    8 type  3   force =     0.00782801   -0.09149810   -0.02296205
     atom    9 type  4   force =    -1.10080271    1.11841042    0.00571586
     atom   10 type  4   force =    -1.10080271   -1.11841042   -0.00571586
     atom   11 type  4   force =     1.43180870    0.59657025    0.57001113
     atom   12 type  4   force =     1.43180870   -0.59657025   -0.57001113
     atom   13 type  4   force =    -0.01272194    1.51455879    0.71965051
     atom   14 type  4   force =    -0.01272194   -1.51455879   -0.71965051
     atom   15 type  4   force =    -0.42582654   -0.39050629   -1.84667147
     atom   16 type  4   force =    -0.42582654    0.39050629    1.84667147
     The ionic contribution  to forces
     atom    1 type  1   force =    -0.17257962   -0.06658324   -0.09161918
     atom    2 type  1   force =    -0.17257962    0.06658324    0.09161918
     atom    3 type  2   force =    -0.19885503    0.22557694    0.07903480
     atom    4 type  2   force =    -0.19885503   -0.22557694   -0.07903480
     atom    5 type  3   force =     0.34455548    0.96517627   -1.18043804
     atom    6 type  3   force =     0.34455548   -0.96517627    1.18043804
     atom    7 type  3   force =    -0.20201733   -2.21823414   -0.25846248
     atom    8 type  3   force =    -0.20201733    2.21823415    0.25846248
     atom    9 type  4   force =     5.97923666   -3.66908118   -1.96419869
     atom   10 type  4   force =     5.97923666    3.66908118    1.96419869
     atom   11 type  4   force =    -7.16417115   -3.10640295   -2.29986149
     atom   12 type  4   force =    -7.16417116    3.10640295    2.29986149
     atom   13 type  4   force =     0.15347416   -6.36975034   -4.04418748
     atom   14 type  4   force =     0.15347416    6.36975034    4.04418748
     atom   15 type  4   force =     1.26035684   -2.21043914    7.91587261
     atom   16 type  4   force =     1.26035684    2.21043914   -7.91587261
     The local contribution  to forces
     atom    1 type  1   force =     0.17724846    0.05311616    0.09781835
     atom    2 type  1   force =     0.17713679   -0.05304388   -0.09785483
     atom    3 type  2   force =     0.09914461   -0.09788853   -0.13538687
     atom    4 type  2   force =     0.09909025    0.09786382    0.13541419
     atom    5 type  3   force =    -0.32878224   -0.92462673    1.12832761
     atom    6 type  3   force =    -0.32880317    0.92457261   -1.12828808
     atom    7 type  3   force =     0.19741086    2.15979171    0.24942601
     atom    8 type  3   force =     0.19739754   -2.15978950   -0.24940082
     atom    9 type  4   force =    -4.87655264    2.55165607    1.96086389
     atom   10 type  4   force =    -4.87690900   -2.55175631   -1.96106007
     atom   11 type  4   force =     5.73274464    2.51092835    1.73332004
     atom   12 type  4   force =     5.73307346   -2.51099120   -1.73345189
     atom   13 type  4   force =    -0.15507795    4.89455835    3.37925870
     atom   14 type  4   force =    -0.15506799   -4.89431744   -3.37905346
     atom   15 type  4   force =    -0.82680503    2.57268169   -6.04636196
     atom   16 type  4   force =    -0.82686003   -2.57288116    6.04660638
     The core correction contribution to forces
     atom    1 type  1   force =     0.00046828   -0.00139980   -0.00043129
     atom    2 type  1   force =     0.00046583    0.00139928    0.00042955
     atom    3 type  2   force =    -0.00708748    0.00874573   -0.00249738
     atom    4 type  2   force =    -0.00708554   -0.00874530    0.00249897
     atom    5 type  3   force =     0.00000000    0.00000000    0.00000000
     atom    6 type  3   force =     0.00000000    0.00000000    0.00000000
     atom    7 type  3   force =     0.00000000    0.00000000    0.00000000
     atom    8 type  3   force =     0.00000000    0.00000000    0.00000000
     atom    9 type  4   force =     0.01012112   -0.01071884    0.00031549
     atom   10 type  4   force =     0.01012171    0.01071916   -0.00031562
     atom   11 type  4   force =    -0.01249777   -0.00555124   -0.00470988
     atom   12 type  4   force =    -0.01249737    0.00555184    0.00470971
     atom   13 type  4   force =    -0.00010620   -0.01301955   -0.00573686
     atom   14 type  4   force =    -0.00010687    0.01301914    0.00573675
     atom   15 type  4   force =     0.00425773    0.00428073    0.01774233
     atom   16 type  4   force =     0.00425832   -0.00428033   -0.01774220
     The Hubbard contrib.    to forces
     atom    1 type  1   force =     0.00000000    0.00000000    0.00000000
     atom    2 type  1   force =     0.00000000    0.00000000    0.00000000
     atom    3 type  2   force =     0.00000000    0.00000000    0.00000000
     atom    4 type  2   force =     0.00000000    0.00000000    0.00000000
     atom    5 type  3   force =     0.00000000    0.00000000    0.00000000
     atom    6 type  3   force =     0.00000000    0.00000000    0.00000000
     atom    7 type  3   force =     0.00000000    0.00000000    0.00000000
     atom    8 type  3   force =     0.00000000    0.00000000    0.00000000
     atom    9 type  4   force =     0.00000000    0.00000000    0.00000000
     atom   10 type  4   force =     0.00000000    0.00000000    0.00000000
     atom   11 type  4   force =     0.00000000    0.00000000    0.00000000
     atom   12 type  4   force =     0.00000000    0.00000000    0.00000000
     atom   13 type  4   force =     0.00000000    0.00000000    0.00000000
     atom   14 type  4   force =     0.00000000    0.00000000    0.00000000
     atom   15 type  4   force =     0.00000000    0.00000000    0.00000000
     atom   16 type  4   force =     0.00000000    0.00000000    0.00000000
     The SCF correction term to forces
     atom    1 type  1   force =    -0.00000337    0.00003185    0.00011714
     atom    2 type  1   force =     0.00008895   -0.00008996   -0.00008423
     atom    3 type  2   force =    -0.00015727    0.00017534    0.00000845
     atom    4 type  2   force =    -0.00005302   -0.00014501   -0.00001119
     atom    5 type  3   force =    -0.00000588    0.00005368   -0.00005346
     atom    6 type  3   force =     0.00001991   -0.00000943    0.00002747
     atom    7 type  3   force =    -0.00001775   -0.00005177   -0.00004024
     atom    8 type  3   force =    -0.00000520    0.00005598    0.00001721
     atom    9 type  4   force =    -0.00042827    0.00017631    0.00011225
     atom   10 type  4   force =     0.00002324   -0.00005476    0.00012079
     atom   11 type  4   force =     0.00036090    0.00015410    0.00011199
     atom   12 type  4   force =    -0.00002068   -0.00004320    0.00003040
     atom   13 type  4   force =    -0.00003245   -0.00011853    0.00003849
     atom   14 type  4   force =    -0.00007949   -0.00019057   -0.00027045
     atom   15 type  4   force =    -0.00013304    0.00022410   -0.00034623
     atom   16 type  4   force =    -0.00002960    0.00001202    0.00007806

     Total force =     0.124738     Total SCF correction =     0.000935


     Computing stress (Cartesian axis) and pressure

          total   stress  (Ry/bohr**3)                   (kbar)     P=     -217.56
  -0.00153776   0.00000000   0.00000000         -226.21        0.00        0.00
   0.00000000  -0.00132641  -0.00006111            0.00     -195.12       -8.99
   0.00000000  -0.00006111  -0.00157258            0.00       -8.99     -231.33

     kinetic stress (kbar)  10716.28      0.00      0.00
                                0.00  10382.12     19.49
                                0.00     19.49  10498.72

     local   stress (kbar)  -8093.94     -0.00      0.01
                               -0.00 -11918.51    786.27
                                0.01    786.27  -9747.65

     nonloc. stress (kbar)   4168.83      0.00      0.00
                                0.00   4177.38     12.70
                                0.00     12.70   4147.53

     hartree stress (kbar)   3460.91      0.00     -0.01
                                0.00   4855.40   -419.95
                               -0.01   -419.95   4116.04

     exc-cor stress (kbar)   2125.85      0.00      0.00
                                0.00   2137.11     -1.14
                                0.00     -1.14   2131.45

     corecor stress (kbar)  -4734.10     -0.00     -0.00
                               -0.00  -4734.79     -1.39
                               -0.00     -1.39  -4732.35

     ewald   stress (kbar)  -7870.05      0.00     -0.00
                                0.00  -5093.83   -404.97
                               -0.00   -404.97  -6645.06

     hubbard stress (kbar)      0.00      0.00      0.00
                                0.00      0.00      0.00
                                0.00      0.00      0.00

     DFT-D   stress (kbar)      0.00      0.00      0.00
                                0.00      0.00      0.00
                                0.00      0.00      0.00

     XDM     stress (kbar)      0.00      0.00      0.00
                                0.00      0.00      0.00
                                0.00      0.00      0.00

     dft-nl  stress (kbar)      0.00      0.00      0.00
                                0.00      0.00      0.00
                                0.00      0.00      0.00

     TS-vdW  stress (kbar)      0.00      0.00      0.00
                                0.00      0.00      0.00
                                0.00      0.00      0.00


                                0.00      0.00      0.00
                                0.00      0.00      0.00


                                0.00      0.00      0.00


     Writing all to output data dir new_calculations/myprefix.save/
 
     init_run     :     99.69s CPU      4.98s WALL (       1 calls)
     electrons    :    223.10s CPU      7.74s WALL (       1 calls)
     forces       :      7.27s CPU      0.24s WALL (       1 calls)
     stress       :     22.71s CPU      0.75s WALL (       1 calls)

     Called by init_run:
     wfcinit      :     24.62s CPU      0.80s WALL (       1 calls)
     wfcinit:atom :      0.02s CPU      0.00s WALL (       1 calls)
     wfcinit:wfcr :     24.33s CPU      0.79s WALL (       1 calls)
     potinit      :     23.00s CPU      0.78s WALL (       1 calls)
     hinit0       :     47.25s CPU      3.20s WALL (       1 calls)

     Called by electrons:
     c_bands      :    116.84s CPU      3.72s WALL (       9 calls)
     sum_band     :     42.41s CPU      1.89s WALL (       9 calls)
     v_of_rho     :      8.96s CPU      0.30s WALL (      10 calls)
     v_h          :      0.79s CPU      0.03s WALL (      10 calls)
     v_xc         :      9.36s CPU      0.31s WALL (      12 calls)
     newd         :     31.77s CPU      1.08s WALL (      10 calls)
     PAW_pot      :     24.27s CPU      0.80s WALL (      10 calls)
     mix_rho      :      1.95s CPU      0.06s WALL (       9 calls)

     Called by c_bands:
     init_us_2    :      0.33s CPU      0.01s WALL (      19 calls)
     init_us_2:cp :      0.30s CPU      0.01s WALL (      19 calls)
     regterg      :    115.83s CPU      3.69s WALL (       9 calls)

     Called by sum_band:
     sum_band:wei :      0.01s CPU      0.00s WALL (       9 calls)
     sum_band:loo :     18.39s CPU      0.58s WALL (       9 calls)
     sum_band:buf :      0.01s CPU      0.00s WALL (       9 calls)
     sum_band:ini :      0.12s CPU      0.00s WALL (       9 calls)
     sum_band:cal :      0.09s CPU      0.00s WALL (       9 calls)
     sum_band:bec :      0.05s CPU      0.00s WALL (       9 calls)
     addusdens    :     22.78s CPU      1.26s WALL (       9 calls)
     addusd:skk   :      0.28s CPU      0.02s WALL (      36 calls)
     addusd:dgemm :      2.11s CPU      0.58s WALL (      36 calls)
     addusd:qvan2 :     19.42s CPU      0.63s WALL (      36 calls)

     Called by *egterg:
     rdiaghg      :      4.24s CPU      0.14s WALL (      47 calls)
     regterg:over :      0.20s CPU      0.01s WALL (      38 calls)
     regterg:upda :      0.45s CPU      0.01s WALL (      38 calls)
     regterg:last :      0.95s CPU      0.03s WALL (      19 calls)
     h_psi        :    132.59s CPU      4.23s WALL (      48 calls)
     s_psi        :      0.13s CPU      0.00s WALL (      48 calls)
     g_psi        :      0.05s CPU      0.00s WALL (      38 calls)

     Called by h_psi:
     h_psi:calbec :      0.38s CPU      0.01s WALL (      48 calls)
     vloc_psi     :    131.58s CPU      4.19s WALL (      48 calls)
     add_vuspsi   :      0.30s CPU      0.01s WALL (      48 calls)

     General routines
     calbec       :      0.43s CPU      0.01s WALL (      62 calls)
     fft          :     31.38s CPU      1.10s WALL (     128 calls)
     ffts         :     17.80s CPU      0.61s WALL (      19 calls)
     fftw         :    135.54s CPU      4.30s WALL (    1512 calls)
     interpolate  :     18.38s CPU      0.63s WALL (      10 calls)
 
     Parallel routines

     PAW routines
     PAW_pot      :     24.27s CPU      0.80s WALL (      10 calls)
     PAW_symme    :      0.03s CPU      0.00s WALL (      19 calls)
 
     PWSCF        :   5m57.54s CPU     14.11s WALL

 
   This run was terminated on:   1:31:10  21May2023            

=------------------------------------------------------------------------------=
   JOB DONE.
=------------------------------------------------------------------------------=
