
     Program PWSCF v.7.0 starts on 20May2023 at 19:43: 5 

     This program is part of the open-source Quantum ESPRESSO suite
     for quantum simulation of materials; please cite
         "P. Giannozzi et al., J. Phys.:Condens. Matter 21 395502 (2009);
         "P. Giannozzi et al., J. Phys.:Condens. Matter 29 465901 (2017);
         "P. Giannozzi et al., J. Chem. Phys. 152 154105 (2020);
          URL http://www.quantum-espresso.org", 
     in publications or presentations arising from this work. More details at
     http://www.quantum-espresso.org/quote

     Parallel version (MPI & OpenMP), running on      32 processor cores
     Number of MPI processes:                 1
     Threads/MPI process:                    32

     MPI processes distributed on     1 nodes
     78232 MiB available memory on the printing compute node when the environment starts
 
     Reading input from espresso_14692.pwi
Warning: card &CELL ignored
Warning: card / ignored

     Current dimensions of program PWSCF are:
     Max number of different atomic species (ntypx) = 10
     Max number of k-points (npk) =  40000
     Max angular momentum in pseudopotentials (lmaxx) =  4
     file Fe.pbe-spn-kjpaw_psl.0.2.1.UPF: wavefunction(s)  3D renormalized

     gamma-point specific algorithms are used
     Message from routine setup:
     using ibrav=0 with symmetry is DISCOURAGED, use correct ibrav instead

     Subspace diagonalization in iterative solution of the eigenvalue problem:
     a serial algorithm will be used

 
     G-vector sticks info
     --------------------
     sticks:   dense  smooth     PW     G-vecs:    dense   smooth      PW
     Sum        1285     649    163                34445    12113    1533
 
     Using Slab Decomposition
 


     bravais-lattice index     =            0
     lattice parameter (alat)  =       8.8038  a.u.
     unit-cell volume          =     548.2480 (a.u.)^3
     number of atoms/cell      =            8
     number of atomic types    =            2
     number of electrons       =       106.00
     number of Kohn-Sham states=           64
     kinetic-energy cutoff     =      30.0000  Ry
     charge density cutoff     =     240.0000  Ry
     scf convergence threshold =      1.0E-06
     mixing beta               =       0.7000
     number of iterations used =            8  plain     mixing
     Exchange-correlation= PBE
                           (   1   4   3   4   0   0   0)

     celldm(1)=   8.803799  celldm(2)=   0.000000  celldm(3)=   0.000000
     celldm(4)=   0.000000  celldm(5)=   0.000000  celldm(6)=   0.000000

     crystal axes: (cart. coord. in units of alat)
               a(1) = (   1.000000   0.000000   0.000000 )  
               a(2) = (  -0.500000   0.866025   0.000000 )  
               a(3) = (   0.000000   0.000000   0.927761 )  

     reciprocal axes: (cart. coord. in units 2 pi/alat)
               b(1) = (  1.000000  0.577350  0.000000 )  
               b(2) = (  0.000000  1.154701  0.000000 )  
               b(3) = (  0.000000  0.000000  1.077864 )  


     PseudoPot. # 1 for Fe read from file:
     /home/pragov/projects/rrg-bengioy-ad/pragov/crystal_structure_design/SSSP/Fe.pbe-spn-kjpaw_psl.0.2.1.UPF
     MD5 check sum: e86618425769142926afa95317d90200
     Pseudo is Projector augmented-wave + core cor, Zval = 16.0
     Generated using "atomic" code by A. Dal Corso  v.5.0.99 svn rev. 10869
     Shape of augmentation charge: PSQ
     Using radial grid of 1191 points,  6 beta functions with: 
                l(1) =   0
                l(2) =   0
                l(3) =   1
                l(4) =   1
                l(5) =   2
                l(6) =   2
     Q(r) pseudized with 0 coefficients 


     PseudoPot. # 2 for N  read from file:
     /home/pragov/projects/rrg-bengioy-ad/pragov/crystal_structure_design/SSSP/N.pbe-n-radius_5.UPF
     MD5 check sum: 16739722b17309cd8fe442a2ace49922
     Pseudo is Ultrasoft + core correction, Zval =  5.0
     Generated using "atomic" code by A. Dal Corso  v.5.1
     Using radial grid of 1085 points,  4 beta functions with: 
                l(1) =   0
                l(2) =   0
                l(3) =   1
                l(4) =   1
     Q(r) pseudized with 0 coefficients 


     atomic species   valence    mass     pseudopotential
        Fe            16.00    55.84500     Fe( 1.00)
        N              5.00    14.00700     N ( 1.00)

     12 Sym. Ops. (no inversion) found ( 6 have fractional translation)


                                    s                        frac. trans.

      isym =  1     identity                                     

 cryst.   s( 1) = (     1          0          0      )
                  (     0          1          0      )
                  (     0          0          1      )

 cart.    s( 1) = (  1.0000000 -0.0000000  0.0000000 )
                  (  0.0000000  1.0000000  0.0000000 )
                  (  0.0000000  0.0000000  1.0000000 )


      isym =  2     180 deg rotation - cart. axis [0,0,1]        

 cryst.   s( 2) = (    -1          0          0      )    f =( -0.0000000 )
                  (     0         -1          0      )       ( -0.0000000 )
                  (     0          0          1      )       ( -0.5000000 )

 cart.    s( 2) = ( -1.0000000  0.0000000  0.0000000 )    f =( -0.0000000 )
                  (  0.0000000 -1.0000000  0.0000000 )       ( -0.0000000 )
                  (  0.0000000  0.0000000  1.0000000 )       ( -0.4638804 )


      isym =  3     180 deg rotation - cart. axis [0,1,0]        

 cryst.   s( 3) = (    -1          0          0      )    f =( -0.0000000 )
                  (     1          1          0      )       (  0.0000000 )
                  (     0          0         -1      )       (  0.5000000 )

 cart.    s( 3) = ( -1.0000000  0.0000001  0.0000000 )    f =( -0.0000000 )
                  (  0.0000000  1.0000000  0.0000000 )       (  0.0000000 )
                  (  0.0000000  0.0000000 -1.0000000 )       (  0.4638804 )


      isym =  4     180 deg rotation - cart. axis [1,0,0]        

 cryst.   s( 4) = (     1          0          0      )
                  (    -1         -1          0      )
                  (     0          0         -1      )

 cart.    s( 4) = (  1.0000000 -0.0000001  0.0000000 )
                  (  0.0000000 -1.0000000  0.0000000 )
                  (  0.0000000  0.0000000 -1.0000000 )


      isym =  5      60 deg rotation - cryst. axis [0,0,1]       

 cryst.   s( 5) = (     1          1          0      )    f =( -0.0000000 )
                  (    -1          0          0      )       ( -0.0000000 )
                  (     0          0          1      )       ( -0.5000000 )

 cart.    s( 5) = (  0.5000000 -0.8660254  0.0000000 )    f =( -0.0000000 )
                  (  0.8660254  0.5000000  0.0000000 )       ( -0.0000000 )
                  (  0.0000000  0.0000000  1.0000000 )       ( -0.4638804 )


      isym =  6      60 deg rotation - cryst. axis [0,0,-1]      

 cryst.   s( 6) = (     0         -1          0      )    f =(  0.0000000 )
                  (     1          1          0      )       ( -0.0000000 )
                  (     0          0          1      )       ( -0.5000000 )

 cart.    s( 6) = (  0.5000000  0.8660254  0.0000000 )    f =(  0.0000000 )
                  ( -0.8660254  0.5000000  0.0000000 )       ( -0.0000000 )
                  (  0.0000000  0.0000000  1.0000000 )       ( -0.4638804 )


      isym =  7     120 deg rotation - cryst. axis [0,0,1]       

 cryst.   s( 7) = (     0          1          0      )
                  (    -1         -1          0      )
                  (     0          0          1      )

 cart.    s( 7) = ( -0.5000000 -0.8660254  0.0000000 )
                  (  0.8660254 -0.5000000  0.0000000 )
                  (  0.0000000  0.0000000  1.0000000 )


      isym =  8     120 deg rotation - cryst. axis [0,0,-1]      

 cryst.   s( 8) = (    -1         -1          0      )
                  (     1          0          0      )
                  (     0          0          1      )

 cart.    s( 8) = ( -0.5000000  0.8660254  0.0000000 )
                  ( -0.8660254 -0.5000000  0.0000000 )
                  (  0.0000000  0.0000000  1.0000000 )


      isym =  9     180 deg rotation - cryst. axis [1,-1,0]      

 cryst.   s( 9) = (     0         -1          0      )    f =( -0.0000000 )
                  (    -1          0          0      )       ( -0.0000000 )
                  (     0          0         -1      )       (  0.5000000 )

 cart.    s( 9) = (  0.5000000 -0.8660254  0.0000000 )    f =( -0.0000000 )
                  ( -0.8660254 -0.5000000  0.0000000 )       ( -0.0000000 )
                  (  0.0000000  0.0000000 -1.0000000 )       (  0.4638804 )


      isym = 10     180 deg rotation - cryst. axis [2,1,0]       

 cryst.   s(10) = (     1          1          0      )    f =( -0.0000000 )
                  (     0         -1          0      )       ( -0.0000000 )
                  (     0          0         -1      )       (  0.5000000 )

 cart.    s(10) = (  0.5000000  0.8660253  0.0000000 )    f =( -0.0000000 )
                  (  0.8660254 -0.5000000  0.0000000 )       ( -0.0000000 )
                  (  0.0000000  0.0000000 -1.0000000 )       (  0.4638804 )


      isym = 11     180 deg rotation - cryst. axis [0,1,0]       

 cryst.   s(11) = (    -1         -1          0      )
                  (     0          1          0      )
                  (     0          0         -1      )

 cart.    s(11) = ( -0.5000000 -0.8660253  0.0000000 )
                  ( -0.8660254  0.5000000  0.0000000 )
                  (  0.0000000  0.0000000 -1.0000000 )


      isym = 12     180 deg rotation - cryst. axis [1,1,0]       

 cryst.   s(12) = (     0          1          0      )
                  (     1          0          0      )
                  (     0          0         -1      )

 cart.    s(12) = ( -0.5000000  0.8660254  0.0000000 )
                  (  0.8660254  0.5000000  0.0000000 )
                  (  0.0000000  0.0000000 -1.0000000 )


   Cartesian axes

     site n.     atom                  positions (alat units)
         1           Fe  tau(   1) = (   0.3365895   0.5829901   0.0000000  )
         2           Fe  tau(   2) = (  -0.3365895   0.5829901   0.4638804  )
         3           Fe  tau(   3) = (   0.6731790   0.0000000   0.4638804  )
         4           Fe  tau(   4) = (   0.1634105   0.2830353   0.4638804  )
         5           Fe  tau(   5) = (  -0.1634105   0.2830353   0.0000000  )
         6           Fe  tau(   6) = (   0.3268210   0.0000000   0.0000000  )
         7           N   tau(   7) = (   0.5000005   0.2886749   0.2319402  )
         8           N   tau(   8) = (  -0.0000005   0.5773506   0.6958206  )

   Crystallographic axes

     site n.     atom                  positions (cryst. coord.)
         1           Fe  tau(   1) = (  0.6731790  0.6731790  0.0000000  )
         2           Fe  tau(   2) = (  0.0000000  0.6731790  0.5000000  )
         3           Fe  tau(   3) = (  0.6731790  0.0000000  0.5000000  )
         4           Fe  tau(   4) = (  0.3268210  0.3268210  0.5000000  )
         5           Fe  tau(   5) = (  0.0000000  0.3268210  0.0000000  )
         6           Fe  tau(   6) = (  0.3268210  0.0000000  0.0000000  )
         7           N   tau(   7) = (  0.6666670  0.3333330  0.2500000  )
         8           N   tau(   8) = (  0.3333330  0.6666670  0.7500000  )

     number of k points=     1  Methfessel-Paxton smearing, width (Ry)=  0.0010
                       cart. coord. in units 2pi/alat
        k(    1) = (   0.0000000   0.0000000   0.0000000), wk =   2.0000000

                       cryst. coord.
        k(    1) = (   0.0000000   0.0000000   0.0000000), wk =   2.0000000

     Dense  grid:    17223 G-vectors     FFT dimensions: (  45,  45,  48)

     Smooth grid:     6057 G-vectors     FFT dimensions: (  32,  32,  30)

     Dynamical RAM for                 wfc:       0.74 MB

     Dynamical RAM for     wfc (w. buffer):       0.74 MB

     Dynamical RAM for           str. fact:       0.53 MB

     Dynamical RAM for           local pot:       0.00 MB

     Dynamical RAM for          nlocal pot:       1.44 MB

     Dynamical RAM for                qrad:       2.49 MB

     Dynamical RAM for          rho,v,vnew:       3.01 MB

     Dynamical RAM for               rhoin:       1.00 MB

     Dynamical RAM for            rho*nmix:       4.20 MB

     Dynamical RAM for           G-vectors:       1.03 MB

     Dynamical RAM for          h,s,v(r/c):       0.38 MB

     Dynamical RAM for          <psi|beta>:       0.06 MB

     Dynamical RAM for                 psi:       1.49 MB

     Dynamical RAM for                hpsi:       1.49 MB

     Dynamical RAM for                spsi:       1.49 MB

     Dynamical RAM for      wfcinit/wfcrot:       2.17 MB

     Dynamical RAM for           addusdens:      50.46 MB

     Dynamical RAM for          addusforce:      53.24 MB

     Dynamical RAM for         addusstress:      52.82 MB

     Estimated static dynamical RAM per process >      14.74 MB

     Estimated max dynamical RAM per process >      72.19 MB

     Check: negative core charge=   -0.000325

     Initial potential from superposition of free atoms

     starting charge     105.9974, renormalised to     106.0000
     Starting wfcs are   86 randomized atomic wfcs
     Checking if some PAW data can be deallocated... 

     total cpu time spent up to now is       10.1 secs

     Self-consistent Calculation

     iteration #  1     ecut=    30.00 Ry     beta= 0.70
     Davidson diagonalization with overlap

---- Real-time Memory Report at c_bands before calling an iterative solver
           482 MiB given to the printing process from OS
             0 MiB allocation reported by mallinfo(arena+hblkhd)
         77956 MiB available memory on the node where the printing process lives
------------------
     ethr =  1.00E-02,  avg # of iterations =  2.0

     Threshold (ethr) on eigenvalues was too large:
     Diagonalizing with lowered threshold

     Davidson diagonalization with overlap

---- Real-time Memory Report at c_bands before calling an iterative solver
           498 MiB given to the printing process from OS
             0 MiB allocation reported by mallinfo(arena+hblkhd)
         77955 MiB available memory on the node where the printing process lives
------------------
     ethr =  9.21E-04,  avg # of iterations =  2.0

     total cpu time spent up to now is       14.2 secs

     total energy              =   -2013.35465141 Ry
     estimated scf accuracy    <       1.02778320 Ry

     iteration #  2     ecut=    30.00 Ry     beta= 0.70
     Davidson diagonalization with overlap

---- Real-time Memory Report at c_bands before calling an iterative solver
           508 MiB given to the printing process from OS
             0 MiB allocation reported by mallinfo(arena+hblkhd)
         77945 MiB available memory on the node where the printing process lives
------------------
     ethr =  9.70E-04,  avg # of iterations =  3.0

     total cpu time spent up to now is       16.8 secs

     total energy              =   -2012.71854189 Ry
     estimated scf accuracy    <       7.80482812 Ry

     iteration #  3     ecut=    30.00 Ry     beta= 0.70
     Davidson diagonalization with overlap

---- Real-time Memory Report at c_bands before calling an iterative solver
           517 MiB given to the printing process from OS
             0 MiB allocation reported by mallinfo(arena+hblkhd)
         77936 MiB available memory on the node where the printing process lives
------------------
     ethr =  9.70E-04,  avg # of iterations =  3.0

     total cpu time spent up to now is       19.1 secs

     total energy              =   -2013.76843288 Ry
     estimated scf accuracy    <       0.65935898 Ry

     iteration #  4     ecut=    30.00 Ry     beta= 0.70
     Davidson diagonalization with overlap

---- Real-time Memory Report at c_bands before calling an iterative solver
           518 MiB given to the printing process from OS
             0 MiB allocation reported by mallinfo(arena+hblkhd)
         77935 MiB available memory on the node where the printing process lives
------------------
     ethr =  6.22E-04,  avg # of iterations =  2.0

     total cpu time spent up to now is       21.2 secs

     total energy              =   -2013.68737819 Ry
     estimated scf accuracy    <       8.68829991 Ry

     iteration #  5     ecut=    30.00 Ry     beta= 0.70
     Davidson diagonalization with overlap

---- Real-time Memory Report at c_bands before calling an iterative solver
           518 MiB given to the printing process from OS
             0 MiB allocation reported by mallinfo(arena+hblkhd)
         77935 MiB available memory on the node where the printing process lives
------------------
     ethr =  6.22E-04,  avg # of iterations =  2.0

     total cpu time spent up to now is       23.2 secs

     total energy              =   -2013.80900087 Ry
     estimated scf accuracy    <       2.33528966 Ry

     iteration #  6     ecut=    30.00 Ry     beta= 0.70
     Davidson diagonalization with overlap

---- Real-time Memory Report at c_bands before calling an iterative solver
           518 MiB given to the printing process from OS
             0 MiB allocation reported by mallinfo(arena+hblkhd)
         77938 MiB available memory on the node where the printing process lives
------------------
     ethr =  6.22E-04,  avg # of iterations =  1.0

     total cpu time spent up to now is       25.2 secs

     total energy              =   -2013.87836791 Ry
     estimated scf accuracy    <       0.27099415 Ry

     iteration #  7     ecut=    30.00 Ry     beta= 0.70
     Davidson diagonalization with overlap

---- Real-time Memory Report at c_bands before calling an iterative solver
           518 MiB given to the printing process from OS
             0 MiB allocation reported by mallinfo(arena+hblkhd)
         77938 MiB available memory on the node where the printing process lives
------------------
     ethr =  2.56E-04,  avg # of iterations =  1.0

     total cpu time spent up to now is       27.1 secs

     total energy              =   -2013.83129884 Ry
     estimated scf accuracy    <       2.13935135 Ry

     iteration #  8     ecut=    30.00 Ry     beta= 0.70
     Davidson diagonalization with overlap

---- Real-time Memory Report at c_bands before calling an iterative solver
           518 MiB given to the printing process from OS
             0 MiB allocation reported by mallinfo(arena+hblkhd)
         77939 MiB available memory on the node where the printing process lives
------------------
     ethr =  2.56E-04,  avg # of iterations =  1.0

     total cpu time spent up to now is       29.1 secs

     total energy              =   -2013.88276731 Ry
     estimated scf accuracy    <       0.52747703 Ry

     iteration #  9     ecut=    30.00 Ry     beta= 0.70
     Davidson diagonalization with overlap

---- Real-time Memory Report at c_bands before calling an iterative solver
           518 MiB given to the printing process from OS
             0 MiB allocation reported by mallinfo(arena+hblkhd)
         77940 MiB available memory on the node where the printing process lives
------------------
     ethr =  2.56E-04,  avg # of iterations =  1.0

     total cpu time spent up to now is       31.1 secs

     total energy              =   -2013.89375447 Ry
     estimated scf accuracy    <       0.17448390 Ry

     iteration # 10     ecut=    30.00 Ry     beta= 0.70
     Davidson diagonalization with overlap

---- Real-time Memory Report at c_bands before calling an iterative solver
           518 MiB given to the printing process from OS
             0 MiB allocation reported by mallinfo(arena+hblkhd)
         77940 MiB available memory on the node where the printing process lives
------------------
     ethr =  1.65E-04,  avg # of iterations =  1.0

     total cpu time spent up to now is       33.1 secs

     total energy              =   -2013.88778965 Ry
     estimated scf accuracy    <       0.37102110 Ry

     iteration # 11     ecut=    30.00 Ry     beta= 0.70
     Davidson diagonalization with overlap

---- Real-time Memory Report at c_bands before calling an iterative solver
           518 MiB given to the printing process from OS
             0 MiB allocation reported by mallinfo(arena+hblkhd)
         77941 MiB available memory on the node where the printing process lives
------------------
     ethr =  1.65E-04,  avg # of iterations =  1.0

     total cpu time spent up to now is       35.0 secs

     total energy              =   -2013.89711186 Ry
     estimated scf accuracy    <       0.02208941 Ry

     iteration # 12     ecut=    30.00 Ry     beta= 0.70
     Davidson diagonalization with overlap

---- Real-time Memory Report at c_bands before calling an iterative solver
           518 MiB given to the printing process from OS
             0 MiB allocation reported by mallinfo(arena+hblkhd)
         77942 MiB available memory on the node where the printing process lives
------------------
     ethr =  2.08E-05,  avg # of iterations =  1.0

     total cpu time spent up to now is       36.9 secs

     total energy              =   -2013.89425202 Ry
     estimated scf accuracy    <       0.07835867 Ry

     iteration # 13     ecut=    30.00 Ry     beta= 0.70
     Davidson diagonalization with overlap

---- Real-time Memory Report at c_bands before calling an iterative solver
           518 MiB given to the printing process from OS
             0 MiB allocation reported by mallinfo(arena+hblkhd)
         77941 MiB available memory on the node where the printing process lives
------------------
     ethr =  2.08E-05,  avg # of iterations =  1.0

     total cpu time spent up to now is       38.8 secs

     total energy              =   -2013.89774337 Ry
     estimated scf accuracy    <       0.01887575 Ry

     iteration # 14     ecut=    30.00 Ry     beta= 0.70
     Davidson diagonalization with overlap

---- Real-time Memory Report at c_bands before calling an iterative solver
           518 MiB given to the printing process from OS
             0 MiB allocation reported by mallinfo(arena+hblkhd)
         77943 MiB available memory on the node where the printing process lives
------------------
     ethr =  1.78E-05,  avg # of iterations =  1.0

     total cpu time spent up to now is       40.8 secs

     total energy              =   -2013.89572477 Ry
     estimated scf accuracy    <       0.03110980 Ry

     iteration # 15     ecut=    30.00 Ry     beta= 0.70
     Davidson diagonalization with overlap

---- Real-time Memory Report at c_bands before calling an iterative solver
           518 MiB given to the printing process from OS
             0 MiB allocation reported by mallinfo(arena+hblkhd)
         77943 MiB available memory on the node where the printing process lives
------------------
     ethr =  1.78E-05,  avg # of iterations =  1.0

     total cpu time spent up to now is       42.7 secs

     total energy              =   -2013.88041069 Ry
     estimated scf accuracy    <       0.57450170 Ry

     iteration # 16     ecut=    30.00 Ry     beta= 0.70
     Davidson diagonalization with overlap

---- Real-time Memory Report at c_bands before calling an iterative solver
           518 MiB given to the printing process from OS
             0 MiB allocation reported by mallinfo(arena+hblkhd)
         77944 MiB available memory on the node where the printing process lives
------------------
     ethr =  1.78E-05,  avg # of iterations =  1.0

     total cpu time spent up to now is       44.6 secs

     total energy              =   -2013.86969553 Ry
     estimated scf accuracy    <       0.20684672 Ry

     iteration # 17     ecut=    30.00 Ry     beta= 0.70
     Davidson diagonalization with overlap

---- Real-time Memory Report at c_bands before calling an iterative solver
           518 MiB given to the printing process from OS
             0 MiB allocation reported by mallinfo(arena+hblkhd)
         77944 MiB available memory on the node where the printing process lives
------------------
     ethr =  1.78E-05,  avg # of iterations =  3.0

     total cpu time spent up to now is       45.3 secs

     total energy              =   -2013.84556201 Ry
     estimated scf accuracy    <       1.68280203 Ry

     iteration # 18     ecut=    30.00 Ry     beta= 0.70
     Davidson diagonalization with overlap

---- Real-time Memory Report at c_bands before calling an iterative solver
           518 MiB given to the printing process from OS
             0 MiB allocation reported by mallinfo(arena+hblkhd)
         77944 MiB available memory on the node where the printing process lives
------------------
     ethr =  1.78E-05,  avg # of iterations =  3.0

     total cpu time spent up to now is       46.0 secs

     total energy              =   -2013.86833405 Ry
     estimated scf accuracy    <       0.54339229 Ry

     iteration # 19     ecut=    30.00 Ry     beta= 0.70
     Davidson diagonalization with overlap

---- Real-time Memory Report at c_bands before calling an iterative solver
           518 MiB given to the printing process from OS
             0 MiB allocation reported by mallinfo(arena+hblkhd)
         77944 MiB available memory on the node where the printing process lives
------------------
     ethr =  1.78E-05,  avg # of iterations =  2.0

     total cpu time spent up to now is       46.7 secs

     total energy              =   -2013.87384845 Ry
     estimated scf accuracy    <       0.18144693 Ry

     iteration # 20     ecut=    30.00 Ry     beta= 0.70
     Davidson diagonalization with overlap

---- Real-time Memory Report at c_bands before calling an iterative solver
           518 MiB given to the printing process from OS
             0 MiB allocation reported by mallinfo(arena+hblkhd)
         77944 MiB available memory on the node where the printing process lives
------------------
     ethr =  1.78E-05,  avg # of iterations =  2.0

     total cpu time spent up to now is       47.4 secs

     total energy              =   -2013.87094270 Ry
     estimated scf accuracy    <       0.36804852 Ry

     iteration # 21     ecut=    30.00 Ry     beta= 0.70
     Davidson diagonalization with overlap

---- Real-time Memory Report at c_bands before calling an iterative solver
           518 MiB given to the printing process from OS
             0 MiB allocation reported by mallinfo(arena+hblkhd)
         77945 MiB available memory on the node where the printing process lives
------------------
     ethr =  1.78E-05,  avg # of iterations =  2.0

     total cpu time spent up to now is       48.1 secs

     total energy              =   -2013.87293347 Ry
     estimated scf accuracy    <       0.57263347 Ry

     iteration # 22     ecut=    30.00 Ry     beta= 0.70
     Davidson diagonalization with overlap

---- Real-time Memory Report at c_bands before calling an iterative solver
           518 MiB given to the printing process from OS
             0 MiB allocation reported by mallinfo(arena+hblkhd)
         77946 MiB available memory on the node where the printing process lives
------------------
     ethr =  1.78E-05,  avg # of iterations =  2.0

     total cpu time spent up to now is       48.8 secs

     total energy              =   -2013.87858221 Ry
     estimated scf accuracy    <       0.09961762 Ry

     iteration # 23     ecut=    30.00 Ry     beta= 0.70
     Davidson diagonalization with overlap

---- Real-time Memory Report at c_bands before calling an iterative solver
           518 MiB given to the printing process from OS
             0 MiB allocation reported by mallinfo(arena+hblkhd)
         77945 MiB available memory on the node where the printing process lives
------------------
     ethr =  1.78E-05,  avg # of iterations =  1.0

     total cpu time spent up to now is       49.5 secs

     total energy              =   -2013.87452668 Ry
     estimated scf accuracy    <       0.11148401 Ry

     iteration # 24     ecut=    30.00 Ry     beta= 0.70
     Davidson diagonalization with overlap

---- Real-time Memory Report at c_bands before calling an iterative solver
           518 MiB given to the printing process from OS
             0 MiB allocation reported by mallinfo(arena+hblkhd)
         77946 MiB available memory on the node where the printing process lives
------------------
     ethr =  1.78E-05,  avg # of iterations =  2.0

     total cpu time spent up to now is       50.1 secs

     total energy              =   -2013.89077827 Ry
     estimated scf accuracy    <       0.44080029 Ry

     iteration # 25     ecut=    30.00 Ry     beta= 0.70
     Davidson diagonalization with overlap

---- Real-time Memory Report at c_bands before calling an iterative solver
           518 MiB given to the printing process from OS
             0 MiB allocation reported by mallinfo(arena+hblkhd)
         77946 MiB available memory on the node where the printing process lives
------------------
     ethr =  1.78E-05,  avg # of iterations =  2.0

     total cpu time spent up to now is       50.8 secs

     total energy              =   -2013.89560607 Ry
     estimated scf accuracy    <       0.04465681 Ry

     iteration # 26     ecut=    30.00 Ry     beta= 0.70
     Davidson diagonalization with overlap

---- Real-time Memory Report at c_bands before calling an iterative solver
           518 MiB given to the printing process from OS
             0 MiB allocation reported by mallinfo(arena+hblkhd)
         77946 MiB available memory on the node where the printing process lives
------------------
     ethr =  1.78E-05,  avg # of iterations =  2.0

     total cpu time spent up to now is       52.1 secs

     total energy              =   -2013.82726837 Ry
     estimated scf accuracy    <       3.22769425 Ry

     iteration # 27     ecut=    30.00 Ry     beta= 0.70
     Davidson diagonalization with overlap

---- Real-time Memory Report at c_bands before calling an iterative solver
           518 MiB given to the printing process from OS
             0 MiB allocation reported by mallinfo(arena+hblkhd)
         77939 MiB available memory on the node where the printing process lives
------------------
     ethr =  1.78E-05,  avg # of iterations =  3.0

     total cpu time spent up to now is       52.9 secs

     total energy              =   -2013.89099259 Ry
     estimated scf accuracy    <       0.05904235 Ry

     iteration # 28     ecut=    30.00 Ry     beta= 0.70
     Davidson diagonalization with overlap

---- Real-time Memory Report at c_bands before calling an iterative solver
           518 MiB given to the printing process from OS
             0 MiB allocation reported by mallinfo(arena+hblkhd)
         77939 MiB available memory on the node where the printing process lives
------------------
     ethr =  1.78E-05,  avg # of iterations =  1.0

     total cpu time spent up to now is       53.5 secs

     total energy              =   -2013.89033327 Ry
     estimated scf accuracy    <       0.18617146 Ry

     iteration # 29     ecut=    30.00 Ry     beta= 0.70
     Davidson diagonalization with overlap

---- Real-time Memory Report at c_bands before calling an iterative solver
           518 MiB given to the printing process from OS
             0 MiB allocation reported by mallinfo(arena+hblkhd)
         77942 MiB available memory on the node where the printing process lives
------------------
     ethr =  1.78E-05,  avg # of iterations =  1.0

     total cpu time spent up to now is       54.2 secs

     total energy              =   -2013.89310521 Ry
     estimated scf accuracy    <       0.03631374 Ry

     iteration # 30     ecut=    30.00 Ry     beta= 0.70
     Davidson diagonalization with overlap

---- Real-time Memory Report at c_bands before calling an iterative solver
           518 MiB given to the printing process from OS
             0 MiB allocation reported by mallinfo(arena+hblkhd)
         77942 MiB available memory on the node where the printing process lives
------------------
     ethr =  1.78E-05,  avg # of iterations =  2.0

     total cpu time spent up to now is       54.9 secs

     total energy              =   -2013.88673888 Ry
     estimated scf accuracy    <       0.30063488 Ry

     iteration # 31     ecut=    30.00 Ry     beta= 0.70
     Davidson diagonalization with overlap

---- Real-time Memory Report at c_bands before calling an iterative solver
           518 MiB given to the printing process from OS
             0 MiB allocation reported by mallinfo(arena+hblkhd)
         77942 MiB available memory on the node where the printing process lives
------------------
     ethr =  1.78E-05,  avg # of iterations =  2.0

     total cpu time spent up to now is       55.6 secs

     total energy              =   -2013.89364395 Ry
     estimated scf accuracy    <       0.03397599 Ry

     iteration # 32     ecut=    30.00 Ry     beta= 0.70
     Davidson diagonalization with overlap

---- Real-time Memory Report at c_bands before calling an iterative solver
           518 MiB given to the printing process from OS
             0 MiB allocation reported by mallinfo(arena+hblkhd)
         77943 MiB available memory on the node where the printing process lives
------------------
     ethr =  1.78E-05,  avg # of iterations =  1.0

     total cpu time spent up to now is       56.3 secs

     total energy              =   -2013.89399517 Ry
     estimated scf accuracy    <       0.03226561 Ry

     iteration # 33     ecut=    30.00 Ry     beta= 0.70
     Davidson diagonalization with overlap

---- Real-time Memory Report at c_bands before calling an iterative solver
           518 MiB given to the printing process from OS
             0 MiB allocation reported by mallinfo(arena+hblkhd)
         77943 MiB available memory on the node where the printing process lives
------------------
     ethr =  1.78E-05,  avg # of iterations =  2.0

     total cpu time spent up to now is       56.9 secs

     total energy              =   -2013.87620479 Ry
     estimated scf accuracy    <       0.46776504 Ry

     iteration # 34     ecut=    30.00 Ry     beta= 0.70
     Davidson diagonalization with overlap

---- Real-time Memory Report at c_bands before calling an iterative solver
           518 MiB given to the printing process from OS
             0 MiB allocation reported by mallinfo(arena+hblkhd)
         77943 MiB available memory on the node where the printing process lives
------------------
     ethr =  1.78E-05,  avg # of iterations =  2.0

     total cpu time spent up to now is       57.6 secs

     total energy              =   -2013.88193784 Ry
     estimated scf accuracy    <       0.23427951 Ry

     iteration # 35     ecut=    30.00 Ry     beta= 0.70
     Davidson diagonalization with overlap

---- Real-time Memory Report at c_bands before calling an iterative solver
           518 MiB given to the printing process from OS
             0 MiB allocation reported by mallinfo(arena+hblkhd)
         77942 MiB available memory on the node where the printing process lives
------------------
     ethr =  1.78E-05,  avg # of iterations =  1.0

     total cpu time spent up to now is       58.3 secs

     total energy              =   -2013.88900154 Ry
     estimated scf accuracy    <       0.04304936 Ry

     iteration # 36     ecut=    30.00 Ry     beta= 0.70
     Davidson diagonalization with overlap

---- Real-time Memory Report at c_bands before calling an iterative solver
           518 MiB given to the printing process from OS
             0 MiB allocation reported by mallinfo(arena+hblkhd)
         77942 MiB available memory on the node where the printing process lives
------------------
     ethr =  1.78E-05,  avg # of iterations =  1.0

     total cpu time spent up to now is       59.0 secs

     total energy              =   -2013.88607369 Ry
     estimated scf accuracy    <       0.26231962 Ry

     iteration # 37     ecut=    30.00 Ry     beta= 0.70
     Davidson diagonalization with overlap

---- Real-time Memory Report at c_bands before calling an iterative solver
           518 MiB given to the printing process from OS
             0 MiB allocation reported by mallinfo(arena+hblkhd)
         77943 MiB available memory on the node where the printing process lives
------------------
     ethr =  1.78E-05,  avg # of iterations =  1.0

     total cpu time spent up to now is       59.7 secs

     total energy              =   -2013.88315612 Ry
     estimated scf accuracy    <       0.10975725 Ry

     iteration # 38     ecut=    30.00 Ry     beta= 0.70
     Davidson diagonalization with overlap

---- Real-time Memory Report at c_bands before calling an iterative solver
           518 MiB given to the printing process from OS
             0 MiB allocation reported by mallinfo(arena+hblkhd)
         77943 MiB available memory on the node where the printing process lives
------------------
     ethr =  1.78E-05,  avg # of iterations =  1.0

     total cpu time spent up to now is       60.3 secs

     total energy              =   -2013.87991014 Ry
     estimated scf accuracy    <       0.11887080 Ry

     iteration # 39     ecut=    30.00 Ry     beta= 0.70
     Davidson diagonalization with overlap

---- Real-time Memory Report at c_bands before calling an iterative solver
           518 MiB given to the printing process from OS
             0 MiB allocation reported by mallinfo(arena+hblkhd)
         77944 MiB available memory on the node where the printing process lives
------------------
     ethr =  1.78E-05,  avg # of iterations =  1.0

     total cpu time spent up to now is       61.0 secs

     total energy              =   -2013.87646745 Ry
     estimated scf accuracy    <       0.15655666 Ry

     iteration # 40     ecut=    30.00 Ry     beta= 0.70
     Davidson diagonalization with overlap

---- Real-time Memory Report at c_bands before calling an iterative solver
           518 MiB given to the printing process from OS
             0 MiB allocation reported by mallinfo(arena+hblkhd)
         77944 MiB available memory on the node where the printing process lives
------------------
     ethr =  1.78E-05,  avg # of iterations =  1.0

     total cpu time spent up to now is       61.7 secs

     total energy              =   -2013.87888868 Ry
     estimated scf accuracy    <       0.12144918 Ry

     iteration # 41     ecut=    30.00 Ry     beta= 0.70
     Davidson diagonalization with overlap

---- Real-time Memory Report at c_bands before calling an iterative solver
           518 MiB given to the printing process from OS
             0 MiB allocation reported by mallinfo(arena+hblkhd)
         77944 MiB available memory on the node where the printing process lives
------------------
     ethr =  1.78E-05,  avg # of iterations =  2.0

     total cpu time spent up to now is       62.4 secs

     total energy              =   -2013.85960918 Ry
     estimated scf accuracy    <       0.60112678 Ry

     iteration # 42     ecut=    30.00 Ry     beta= 0.70
     Davidson diagonalization with overlap

---- Real-time Memory Report at c_bands before calling an iterative solver
           518 MiB given to the printing process from OS
             0 MiB allocation reported by mallinfo(arena+hblkhd)
         77944 MiB available memory on the node where the printing process lives
------------------
     ethr =  1.78E-05,  avg # of iterations =  3.0

     total cpu time spent up to now is       63.1 secs

     total energy              =   -2013.87964714 Ry
     estimated scf accuracy    <       0.25060398 Ry

     iteration # 43     ecut=    30.00 Ry     beta= 0.70
     Davidson diagonalization with overlap

---- Real-time Memory Report at c_bands before calling an iterative solver
           518 MiB given to the printing process from OS
             0 MiB allocation reported by mallinfo(arena+hblkhd)
         77945 MiB available memory on the node where the printing process lives
------------------
     ethr =  1.78E-05,  avg # of iterations =  2.0

     total cpu time spent up to now is       63.8 secs

     total energy              =   -2013.89123126 Ry
     estimated scf accuracy    <       0.11681922 Ry

     iteration # 44     ecut=    30.00 Ry     beta= 0.70
     Davidson diagonalization with overlap

---- Real-time Memory Report at c_bands before calling an iterative solver
           518 MiB given to the printing process from OS
             0 MiB allocation reported by mallinfo(arena+hblkhd)
         77945 MiB available memory on the node where the printing process lives
------------------
     ethr =  1.78E-05,  avg # of iterations =  1.0

     total cpu time spent up to now is       64.5 secs

     total energy              =   -2013.88711225 Ry
     estimated scf accuracy    <       0.09368820 Ry

     iteration # 45     ecut=    30.00 Ry     beta= 0.70
     Davidson diagonalization with overlap

---- Real-time Memory Report at c_bands before calling an iterative solver
           518 MiB given to the printing process from OS
             0 MiB allocation reported by mallinfo(arena+hblkhd)
         77945 MiB available memory on the node where the printing process lives
------------------
     ethr =  1.78E-05,  avg # of iterations =  2.0

     total cpu time spent up to now is       65.2 secs

     total energy              =   -2013.87091448 Ry
     estimated scf accuracy    <       0.94266754 Ry

     iteration # 46     ecut=    30.00 Ry     beta= 0.70
     Davidson diagonalization with overlap

---- Real-time Memory Report at c_bands before calling an iterative solver
           518 MiB given to the printing process from OS
             0 MiB allocation reported by mallinfo(arena+hblkhd)
         77946 MiB available memory on the node where the printing process lives
------------------
     ethr =  1.78E-05,  avg # of iterations =  2.0

     total cpu time spent up to now is       65.9 secs

     total energy              =   -2013.88380704 Ry
     estimated scf accuracy    <       0.46961100 Ry

     iteration # 47     ecut=    30.00 Ry     beta= 0.70
     Davidson diagonalization with overlap

---- Real-time Memory Report at c_bands before calling an iterative solver
           518 MiB given to the printing process from OS
             0 MiB allocation reported by mallinfo(arena+hblkhd)
         77943 MiB available memory on the node where the printing process lives
------------------
     ethr =  1.78E-05,  avg # of iterations =  2.0

     total cpu time spent up to now is       66.6 secs

     total energy              =   -2013.88575206 Ry
     estimated scf accuracy    <       0.20322221 Ry

     iteration # 48     ecut=    30.00 Ry     beta= 0.70
     Davidson diagonalization with overlap

---- Real-time Memory Report at c_bands before calling an iterative solver
           518 MiB given to the printing process from OS
             0 MiB allocation reported by mallinfo(arena+hblkhd)
         77944 MiB available memory on the node where the printing process lives
------------------
     ethr =  1.78E-05,  avg # of iterations =  2.0

     total cpu time spent up to now is       67.2 secs

     total energy              =   -2013.88966526 Ry
     estimated scf accuracy    <       0.09873610 Ry

     iteration # 49     ecut=    30.00 Ry     beta= 0.70
     Davidson diagonalization with overlap

---- Real-time Memory Report at c_bands before calling an iterative solver
           518 MiB given to the printing process from OS
             0 MiB allocation reported by mallinfo(arena+hblkhd)
         77944 MiB available memory on the node where the printing process lives
------------------
     ethr =  1.78E-05,  avg # of iterations =  1.0

     total cpu time spent up to now is       67.9 secs

     total energy              =   -2013.89294548 Ry
     estimated scf accuracy    <       0.03192689 Ry

     iteration # 50     ecut=    30.00 Ry     beta= 0.70
     Davidson diagonalization with overlap

---- Real-time Memory Report at c_bands before calling an iterative solver
           518 MiB given to the printing process from OS
             0 MiB allocation reported by mallinfo(arena+hblkhd)
         77944 MiB available memory on the node where the printing process lives
------------------
     ethr =  1.78E-05,  avg # of iterations =  1.0

     total cpu time spent up to now is       68.6 secs

     total energy              =   -2013.88444753 Ry
     estimated scf accuracy    <       0.17664368 Ry

     iteration # 51     ecut=    30.00 Ry     beta= 0.70
     Davidson diagonalization with overlap

---- Real-time Memory Report at c_bands before calling an iterative solver
           518 MiB given to the printing process from OS
             0 MiB allocation reported by mallinfo(arena+hblkhd)
         77945 MiB available memory on the node where the printing process lives
------------------
     ethr =  1.78E-05,  avg # of iterations =  1.0

     total cpu time spent up to now is       69.3 secs

     total energy              =   -2013.88470934 Ry
     estimated scf accuracy    <       0.17378533 Ry

     iteration # 52     ecut=    30.00 Ry     beta= 0.70
     Davidson diagonalization with overlap

---- Real-time Memory Report at c_bands before calling an iterative solver
           518 MiB given to the printing process from OS
             0 MiB allocation reported by mallinfo(arena+hblkhd)
         77945 MiB available memory on the node where the printing process lives
------------------
     ethr =  1.78E-05,  avg # of iterations =  1.0

     total cpu time spent up to now is       69.9 secs

     total energy              =   -2013.88936692 Ry
     estimated scf accuracy    <       0.02911870 Ry

     iteration # 53     ecut=    30.00 Ry     beta= 0.70
     Davidson diagonalization with overlap

---- Real-time Memory Report at c_bands before calling an iterative solver
           518 MiB given to the printing process from OS
             0 MiB allocation reported by mallinfo(arena+hblkhd)
         77944 MiB available memory on the node where the printing process lives
------------------
     ethr =  1.78E-05,  avg # of iterations =  1.0

     total cpu time spent up to now is       70.6 secs

     total energy              =   -2013.88624195 Ry
     estimated scf accuracy    <       0.18519534 Ry

     iteration # 54     ecut=    30.00 Ry     beta= 0.70
     Davidson diagonalization with overlap

---- Real-time Memory Report at c_bands before calling an iterative solver
           518 MiB given to the printing process from OS
             0 MiB allocation reported by mallinfo(arena+hblkhd)
         77944 MiB available memory on the node where the printing process lives
------------------
     ethr =  1.78E-05,  avg # of iterations =  2.0

     total cpu time spent up to now is       71.3 secs

     total energy              =   -2013.88407923 Ry
     estimated scf accuracy    <       0.39934710 Ry

     iteration # 55     ecut=    30.00 Ry     beta= 0.70
     Davidson diagonalization with overlap

---- Real-time Memory Report at c_bands before calling an iterative solver
           518 MiB given to the printing process from OS
             0 MiB allocation reported by mallinfo(arena+hblkhd)
         77945 MiB available memory on the node where the printing process lives
------------------
     ethr =  1.78E-05,  avg # of iterations =  2.0

     total cpu time spent up to now is       72.0 secs

     total energy              =   -2013.89475136 Ry
     estimated scf accuracy    <       0.01997839 Ry

     iteration # 56     ecut=    30.00 Ry     beta= 0.70
     Davidson diagonalization with overlap

---- Real-time Memory Report at c_bands before calling an iterative solver
           518 MiB given to the printing process from OS
             0 MiB allocation reported by mallinfo(arena+hblkhd)
         77944 MiB available memory on the node where the printing process lives
------------------
     ethr =  1.78E-05,  avg # of iterations =  1.0

     total cpu time spent up to now is       72.6 secs

     total energy              =   -2013.88123888 Ry
     estimated scf accuracy    <       0.50011431 Ry

     iteration # 57     ecut=    30.00 Ry     beta= 0.70
     Davidson diagonalization with overlap

---- Real-time Memory Report at c_bands before calling an iterative solver
           518 MiB given to the printing process from OS
             0 MiB allocation reported by mallinfo(arena+hblkhd)
         77944 MiB available memory on the node where the printing process lives
------------------
     ethr =  1.78E-05,  avg # of iterations =  1.0

     total cpu time spent up to now is       73.3 secs

     total energy              =   -2013.88549027 Ry
     estimated scf accuracy    <       0.05932163 Ry

     iteration # 58     ecut=    30.00 Ry     beta= 0.70
     Davidson diagonalization with overlap

---- Real-time Memory Report at c_bands before calling an iterative solver
           518 MiB given to the printing process from OS
             0 MiB allocation reported by mallinfo(arena+hblkhd)
         77944 MiB available memory on the node where the printing process lives
------------------
     ethr =  1.78E-05,  avg # of iterations =  1.0

     total cpu time spent up to now is       74.0 secs

     total energy              =   -2013.88366298 Ry
     estimated scf accuracy    <       0.06990022 Ry

     iteration # 59     ecut=    30.00 Ry     beta= 0.70
     Davidson diagonalization with overlap

---- Real-time Memory Report at c_bands before calling an iterative solver
           518 MiB given to the printing process from OS
             0 MiB allocation reported by mallinfo(arena+hblkhd)
         77944 MiB available memory on the node where the printing process lives
------------------
     ethr =  1.78E-05,  avg # of iterations =  1.0

     total cpu time spent up to now is       74.7 secs

     total energy              =   -2013.88144717 Ry
     estimated scf accuracy    <       0.06494779 Ry

     iteration # 60     ecut=    30.00 Ry     beta= 0.70
     Davidson diagonalization with overlap

---- Real-time Memory Report at c_bands before calling an iterative solver
           518 MiB given to the printing process from OS
             0 MiB allocation reported by mallinfo(arena+hblkhd)
         77944 MiB available memory on the node where the printing process lives
------------------
     ethr =  1.78E-05,  avg # of iterations =  1.0

     total cpu time spent up to now is       75.3 secs

     total energy              =   -2013.88067503 Ry
     estimated scf accuracy    <       0.18966871 Ry

     iteration # 61     ecut=    30.00 Ry     beta= 0.70
     Davidson diagonalization with overlap

---- Real-time Memory Report at c_bands before calling an iterative solver
           518 MiB given to the printing process from OS
             0 MiB allocation reported by mallinfo(arena+hblkhd)
         77945 MiB available memory on the node where the printing process lives
------------------
     ethr =  1.78E-05,  avg # of iterations =  2.0

     total cpu time spent up to now is       76.0 secs

     total energy              =   -2013.88525201 Ry
     estimated scf accuracy    <       0.14662991 Ry

     iteration # 62     ecut=    30.00 Ry     beta= 0.70
     Davidson diagonalization with overlap

---- Real-time Memory Report at c_bands before calling an iterative solver
           518 MiB given to the printing process from OS
             0 MiB allocation reported by mallinfo(arena+hblkhd)
         77945 MiB available memory on the node where the printing process lives
------------------
     ethr =  1.78E-05,  avg # of iterations =  2.0

     total cpu time spent up to now is       76.7 secs

     total energy              =   -2013.85872569 Ry
     estimated scf accuracy    <       0.78682242 Ry

     iteration # 63     ecut=    30.00 Ry     beta= 0.70
     Davidson diagonalization with overlap

---- Real-time Memory Report at c_bands before calling an iterative solver
           518 MiB given to the printing process from OS
             0 MiB allocation reported by mallinfo(arena+hblkhd)
         77944 MiB available memory on the node where the printing process lives
------------------
     ethr =  1.78E-05,  avg # of iterations =  2.0

     total cpu time spent up to now is       77.4 secs

     total energy              =   -2013.87449075 Ry
     estimated scf accuracy    <       0.58714867 Ry

     iteration # 64     ecut=    30.00 Ry     beta= 0.70
     Davidson diagonalization with overlap

---- Real-time Memory Report at c_bands before calling an iterative solver
           518 MiB given to the printing process from OS
             0 MiB allocation reported by mallinfo(arena+hblkhd)
         77945 MiB available memory on the node where the printing process lives
------------------
     ethr =  1.78E-05,  avg # of iterations =  2.0

     total cpu time spent up to now is       78.1 secs

     total energy              =   -2013.89373838 Ry
     estimated scf accuracy    <       0.03140748 Ry

     iteration # 65     ecut=    30.00 Ry     beta= 0.70
     Davidson diagonalization with overlap

---- Real-time Memory Report at c_bands before calling an iterative solver
           518 MiB given to the printing process from OS
             0 MiB allocation reported by mallinfo(arena+hblkhd)
         77945 MiB available memory on the node where the printing process lives
------------------
     ethr =  1.78E-05,  avg # of iterations =  2.0

     total cpu time spent up to now is       78.8 secs

     total energy              =   -2013.89420113 Ry
     estimated scf accuracy    <       0.05469225 Ry

     iteration # 66     ecut=    30.00 Ry     beta= 0.70
     Davidson diagonalization with overlap

---- Real-time Memory Report at c_bands before calling an iterative solver
           518 MiB given to the printing process from OS
             0 MiB allocation reported by mallinfo(arena+hblkhd)
         77945 MiB available memory on the node where the printing process lives
------------------
     ethr =  1.78E-05,  avg # of iterations =  1.0

     total cpu time spent up to now is       79.5 secs

     total energy              =   -2013.89489129 Ry
     estimated scf accuracy    <       0.01976941 Ry

     iteration # 67     ecut=    30.00 Ry     beta= 0.70
     Davidson diagonalization with overlap

---- Real-time Memory Report at c_bands before calling an iterative solver
           518 MiB given to the printing process from OS
             0 MiB allocation reported by mallinfo(arena+hblkhd)
         77945 MiB available memory on the node where the printing process lives
------------------
     ethr =  1.78E-05,  avg # of iterations =  1.0

     total cpu time spent up to now is       80.1 secs

     total energy              =   -2013.89393478 Ry
     estimated scf accuracy    <       0.02725876 Ry

     iteration # 68     ecut=    30.00 Ry     beta= 0.70
     Davidson diagonalization with overlap

---- Real-time Memory Report at c_bands before calling an iterative solver
           518 MiB given to the printing process from OS
             0 MiB allocation reported by mallinfo(arena+hblkhd)
         77945 MiB available memory on the node where the printing process lives
------------------
     ethr =  1.78E-05,  avg # of iterations =  1.0

     total cpu time spent up to now is       80.8 secs

     total energy              =   -2013.88561199 Ry
     estimated scf accuracy    <       0.48282026 Ry

     iteration # 69     ecut=    30.00 Ry     beta= 0.70
     Davidson diagonalization with overlap

---- Real-time Memory Report at c_bands before calling an iterative solver
           518 MiB given to the printing process from OS
             0 MiB allocation reported by mallinfo(arena+hblkhd)
         77945 MiB available memory on the node where the printing process lives
------------------
     ethr =  1.78E-05,  avg # of iterations =  1.0

     total cpu time spent up to now is       81.5 secs

     total energy              =   -2013.88837744 Ry
     estimated scf accuracy    <       0.14711271 Ry

     iteration # 70     ecut=    30.00 Ry     beta= 0.70
     Davidson diagonalization with overlap

---- Real-time Memory Report at c_bands before calling an iterative solver
           518 MiB given to the printing process from OS
             0 MiB allocation reported by mallinfo(arena+hblkhd)
         77945 MiB available memory on the node where the printing process lives
------------------
     ethr =  1.78E-05,  avg # of iterations =  1.0

     total cpu time spent up to now is       82.1 secs

     total energy              =   -2013.88038618 Ry
     estimated scf accuracy    <       0.19561722 Ry

     iteration # 71     ecut=    30.00 Ry     beta= 0.70
     Davidson diagonalization with overlap

---- Real-time Memory Report at c_bands before calling an iterative solver
           518 MiB given to the printing process from OS
             0 MiB allocation reported by mallinfo(arena+hblkhd)
         77945 MiB available memory on the node where the printing process lives
------------------
     ethr =  1.78E-05,  avg # of iterations =  2.0

     total cpu time spent up to now is       82.9 secs

     total energy              =   -2013.86165993 Ry
     estimated scf accuracy    <       1.15521452 Ry

     iteration # 72     ecut=    30.00 Ry     beta= 0.70
     Davidson diagonalization with overlap

---- Real-time Memory Report at c_bands before calling an iterative solver
           518 MiB given to the printing process from OS
             0 MiB allocation reported by mallinfo(arena+hblkhd)
         77943 MiB available memory on the node where the printing process lives
------------------
     ethr =  1.78E-05,  avg # of iterations =  2.0

     total cpu time spent up to now is       83.6 secs

     total energy              =   -2013.88051708 Ry
     estimated scf accuracy    <       0.18988950 Ry

     iteration # 73     ecut=    30.00 Ry     beta= 0.70
     Davidson diagonalization with overlap

---- Real-time Memory Report at c_bands before calling an iterative solver
           518 MiB given to the printing process from OS
             0 MiB allocation reported by mallinfo(arena+hblkhd)
         77943 MiB available memory on the node where the printing process lives
------------------
     ethr =  1.78E-05,  avg # of iterations =  1.0

     total cpu time spent up to now is       84.3 secs

     total energy              =   -2013.88115139 Ry
     estimated scf accuracy    <       0.10864200 Ry

     iteration # 74     ecut=    30.00 Ry     beta= 0.70
     Davidson diagonalization with overlap

---- Real-time Memory Report at c_bands before calling an iterative solver
           518 MiB given to the printing process from OS
             0 MiB allocation reported by mallinfo(arena+hblkhd)
         77942 MiB available memory on the node where the printing process lives
------------------
     ethr =  1.78E-05,  avg # of iterations =  1.0

     total cpu time spent up to now is       84.9 secs

     total energy              =   -2013.87276408 Ry
     estimated scf accuracy    <       0.32586319 Ry

     iteration # 75     ecut=    30.00 Ry     beta= 0.70
     Davidson diagonalization with overlap

---- Real-time Memory Report at c_bands before calling an iterative solver
           518 MiB given to the printing process from OS
             0 MiB allocation reported by mallinfo(arena+hblkhd)
         77942 MiB available memory on the node where the printing process lives
------------------
     ethr =  1.78E-05,  avg # of iterations =  1.0

     total cpu time spent up to now is       85.6 secs

     total energy              =   -2013.88302608 Ry
     estimated scf accuracy    <       0.07605456 Ry

     iteration # 76     ecut=    30.00 Ry     beta= 0.70
     Davidson diagonalization with overlap

---- Real-time Memory Report at c_bands before calling an iterative solver
           518 MiB given to the printing process from OS
             0 MiB allocation reported by mallinfo(arena+hblkhd)
         77943 MiB available memory on the node where the printing process lives
------------------
     ethr =  1.78E-05,  avg # of iterations =  1.0

     total cpu time spent up to now is       86.3 secs

     total energy              =   -2013.88558327 Ry
     estimated scf accuracy    <       0.18328714 Ry

     iteration # 77     ecut=    30.00 Ry     beta= 0.70
     Davidson diagonalization with overlap

---- Real-time Memory Report at c_bands before calling an iterative solver
           518 MiB given to the printing process from OS
             0 MiB allocation reported by mallinfo(arena+hblkhd)
         77943 MiB available memory on the node where the printing process lives
------------------
     ethr =  1.78E-05,  avg # of iterations =  2.0

     total cpu time spent up to now is       87.0 secs

     total energy              =   -2013.88637650 Ry
     estimated scf accuracy    <       0.32314488 Ry

     iteration # 78     ecut=    30.00 Ry     beta= 0.70
     Davidson diagonalization with overlap

---- Real-time Memory Report at c_bands before calling an iterative solver
           518 MiB given to the printing process from OS
             0 MiB allocation reported by mallinfo(arena+hblkhd)
         77943 MiB available memory on the node where the printing process lives
------------------
     ethr =  1.78E-05,  avg # of iterations =  1.0

     total cpu time spent up to now is       87.6 secs

     total energy              =   -2013.89377812 Ry
     estimated scf accuracy    <       0.03351306 Ry

     iteration # 79     ecut=    30.00 Ry     beta= 0.70
     Davidson diagonalization with overlap

---- Real-time Memory Report at c_bands before calling an iterative solver
           518 MiB given to the printing process from OS
             0 MiB allocation reported by mallinfo(arena+hblkhd)
         77942 MiB available memory on the node where the printing process lives
------------------
     ethr =  1.78E-05,  avg # of iterations =  2.0

     total cpu time spent up to now is       88.3 secs

     total energy              =   -2013.87262839 Ry
     estimated scf accuracy    <       0.58144914 Ry

     iteration # 80     ecut=    30.00 Ry     beta= 0.70
     Davidson diagonalization with overlap

---- Real-time Memory Report at c_bands before calling an iterative solver
           518 MiB given to the printing process from OS
             0 MiB allocation reported by mallinfo(arena+hblkhd)
         77943 MiB available memory on the node where the printing process lives
------------------
     ethr =  1.78E-05,  avg # of iterations =  2.0

     total cpu time spent up to now is       89.0 secs

     total energy              =   -2013.88303941 Ry
     estimated scf accuracy    <       0.57133385 Ry

     iteration # 81     ecut=    30.00 Ry     beta= 0.70
     Davidson diagonalization with overlap

---- Real-time Memory Report at c_bands before calling an iterative solver
           518 MiB given to the printing process from OS
             0 MiB allocation reported by mallinfo(arena+hblkhd)
         77943 MiB available memory on the node where the printing process lives
------------------
     ethr =  1.78E-05,  avg # of iterations =  2.0

     total cpu time spent up to now is       89.7 secs

     total energy              =   -2013.88985277 Ry
     estimated scf accuracy    <       0.08101742 Ry

     iteration # 82     ecut=    30.00 Ry     beta= 0.70
     Davidson diagonalization with overlap

---- Real-time Memory Report at c_bands before calling an iterative solver
           518 MiB given to the printing process from OS
             0 MiB allocation reported by mallinfo(arena+hblkhd)
         77943 MiB available memory on the node where the printing process lives
------------------
     ethr =  1.78E-05,  avg # of iterations =  1.0

     total cpu time spent up to now is       90.4 secs

     total energy              =   -2013.89292061 Ry
     estimated scf accuracy    <       0.04224247 Ry

     iteration # 83     ecut=    30.00 Ry     beta= 0.70
     Davidson diagonalization with overlap

---- Real-time Memory Report at c_bands before calling an iterative solver
           518 MiB given to the printing process from OS
             0 MiB allocation reported by mallinfo(arena+hblkhd)
         77944 MiB available memory on the node where the printing process lives
------------------
     ethr =  1.78E-05,  avg # of iterations =  1.0

     total cpu time spent up to now is       91.0 secs

     total energy              =   -2013.89262014 Ry
     estimated scf accuracy    <       0.06888017 Ry

     iteration # 84     ecut=    30.00 Ry     beta= 0.70
     Davidson diagonalization with overlap

---- Real-time Memory Report at c_bands before calling an iterative solver
           518 MiB given to the printing process from OS
             0 MiB allocation reported by mallinfo(arena+hblkhd)
         77944 MiB available memory on the node where the printing process lives
------------------
     ethr =  1.78E-05,  avg # of iterations =  1.0

     total cpu time spent up to now is       91.7 secs

     total energy              =   -2013.89425791 Ry
     estimated scf accuracy    <       0.01672654 Ry

     iteration # 85     ecut=    30.00 Ry     beta= 0.70
     Davidson diagonalization with overlap

---- Real-time Memory Report at c_bands before calling an iterative solver
           518 MiB given to the printing process from OS
             0 MiB allocation reported by mallinfo(arena+hblkhd)
         77943 MiB available memory on the node where the printing process lives
------------------
     ethr =  1.58E-05,  avg # of iterations =  1.0

     total cpu time spent up to now is       92.4 secs

     total energy              =   -2013.87929722 Ry
     estimated scf accuracy    <       0.26657109 Ry

     iteration # 86     ecut=    30.00 Ry     beta= 0.70
     Davidson diagonalization with overlap

---- Real-time Memory Report at c_bands before calling an iterative solver
           518 MiB given to the printing process from OS
             0 MiB allocation reported by mallinfo(arena+hblkhd)
         77944 MiB available memory on the node where the printing process lives
------------------
     ethr =  1.58E-05,  avg # of iterations =  2.0

     total cpu time spent up to now is       93.1 secs

     total energy              =   -2013.88551773 Ry
     estimated scf accuracy    <       0.41698696 Ry

     iteration # 87     ecut=    30.00 Ry     beta= 0.70
     Davidson diagonalization with overlap

---- Real-time Memory Report at c_bands before calling an iterative solver
           518 MiB given to the printing process from OS
             0 MiB allocation reported by mallinfo(arena+hblkhd)
         77944 MiB available memory on the node where the printing process lives
------------------
     ethr =  1.58E-05,  avg # of iterations =  2.0

     total cpu time spent up to now is       93.8 secs

     total energy              =   -2013.88933997 Ry
     estimated scf accuracy    <       0.03925440 Ry

     iteration # 88     ecut=    30.00 Ry     beta= 0.70
     Davidson diagonalization with overlap

---- Real-time Memory Report at c_bands before calling an iterative solver
           518 MiB given to the printing process from OS
             0 MiB allocation reported by mallinfo(arena+hblkhd)
         77944 MiB available memory on the node where the printing process lives
------------------
     ethr =  1.58E-05,  avg # of iterations =  2.0

     total cpu time spent up to now is       94.4 secs

     total energy              =   -2013.88397224 Ry
     estimated scf accuracy    <       0.24163325 Ry

     iteration # 89     ecut=    30.00 Ry     beta= 0.70
     Davidson diagonalization with overlap

---- Real-time Memory Report at c_bands before calling an iterative solver
           518 MiB given to the printing process from OS
             0 MiB allocation reported by mallinfo(arena+hblkhd)
         77944 MiB available memory on the node where the printing process lives
------------------
     ethr =  1.58E-05,  avg # of iterations =  2.0

     total cpu time spent up to now is       95.1 secs

     total energy              =   -2013.88341644 Ry
     estimated scf accuracy    <       0.21887713 Ry

     iteration # 90     ecut=    30.00 Ry     beta= 0.70
     Davidson diagonalization with overlap

---- Real-time Memory Report at c_bands before calling an iterative solver
           518 MiB given to the printing process from OS
             0 MiB allocation reported by mallinfo(arena+hblkhd)
         77944 MiB available memory on the node where the printing process lives
------------------
     ethr =  1.58E-05,  avg # of iterations =  1.0

     total cpu time spent up to now is       95.8 secs

     total energy              =   -2013.88403474 Ry
     estimated scf accuracy    <       0.05049922 Ry

     iteration # 91     ecut=    30.00 Ry     beta= 0.70
     Davidson diagonalization with overlap

---- Real-time Memory Report at c_bands before calling an iterative solver
           518 MiB given to the printing process from OS
             0 MiB allocation reported by mallinfo(arena+hblkhd)
         77944 MiB available memory on the node where the printing process lives
------------------
     ethr =  1.58E-05,  avg # of iterations =  1.0

     total cpu time spent up to now is       96.5 secs

     total energy              =   -2013.88295367 Ry
     estimated scf accuracy    <       0.05478841 Ry

     iteration # 92     ecut=    30.00 Ry     beta= 0.70
     Davidson diagonalization with overlap

---- Real-time Memory Report at c_bands before calling an iterative solver
           518 MiB given to the printing process from OS
             0 MiB allocation reported by mallinfo(arena+hblkhd)
         77944 MiB available memory on the node where the printing process lives
------------------
     ethr =  1.58E-05,  avg # of iterations =  1.0

     total cpu time spent up to now is       97.1 secs

     total energy              =   -2013.88225587 Ry
     estimated scf accuracy    <       0.04629490 Ry

     iteration # 93     ecut=    30.00 Ry     beta= 0.70
     Davidson diagonalization with overlap

---- Real-time Memory Report at c_bands before calling an iterative solver
           518 MiB given to the printing process from OS
             0 MiB allocation reported by mallinfo(arena+hblkhd)
         77944 MiB available memory on the node where the printing process lives
------------------
     ethr =  1.58E-05,  avg # of iterations =  1.0

     total cpu time spent up to now is       97.8 secs

     total energy              =   -2013.88306680 Ry
     estimated scf accuracy    <       0.18498132 Ry

     iteration # 94     ecut=    30.00 Ry     beta= 0.70
     Davidson diagonalization with overlap

---- Real-time Memory Report at c_bands before calling an iterative solver
           518 MiB given to the printing process from OS
             0 MiB allocation reported by mallinfo(arena+hblkhd)
         77944 MiB available memory on the node where the printing process lives
------------------
     ethr =  1.58E-05,  avg # of iterations =  2.0

     total cpu time spent up to now is       98.5 secs

     total energy              =   -2013.85761627 Ry
     estimated scf accuracy    <       1.04239903 Ry

     iteration # 95     ecut=    30.00 Ry     beta= 0.70
     Davidson diagonalization with overlap

---- Real-time Memory Report at c_bands before calling an iterative solver
           518 MiB given to the printing process from OS
             0 MiB allocation reported by mallinfo(arena+hblkhd)
         77945 MiB available memory on the node where the printing process lives
------------------
     ethr =  1.58E-05,  avg # of iterations =  2.0

     total cpu time spent up to now is       99.2 secs

     total energy              =   -2013.86814554 Ry
     estimated scf accuracy    <       0.41577389 Ry

     iteration # 96     ecut=    30.00 Ry     beta= 0.70
     Davidson diagonalization with overlap

---- Real-time Memory Report at c_bands before calling an iterative solver
           518 MiB given to the printing process from OS
             0 MiB allocation reported by mallinfo(arena+hblkhd)
         77944 MiB available memory on the node where the printing process lives
------------------
     ethr =  1.58E-05,  avg # of iterations =  2.0

     total cpu time spent up to now is       99.9 secs

     total energy              =   -2013.85573839 Ry
     estimated scf accuracy    <       1.50219467 Ry

     iteration # 97     ecut=    30.00 Ry     beta= 0.70
     Davidson diagonalization with overlap

---- Real-time Memory Report at c_bands before calling an iterative solver
           518 MiB given to the printing process from OS
             0 MiB allocation reported by mallinfo(arena+hblkhd)
         77944 MiB available memory on the node where the printing process lives
------------------
     ethr =  1.58E-05,  avg # of iterations =  2.0

     total cpu time spent up to now is      100.6 secs

     total energy              =   -2013.88720492 Ry
     estimated scf accuracy    <       0.11644319 Ry

     iteration # 98     ecut=    30.00 Ry     beta= 0.70
     Davidson diagonalization with overlap

---- Real-time Memory Report at c_bands before calling an iterative solver
           518 MiB given to the printing process from OS
             0 MiB allocation reported by mallinfo(arena+hblkhd)
         77944 MiB available memory on the node where the printing process lives
------------------
     ethr =  1.58E-05,  avg # of iterations =  1.0

     total cpu time spent up to now is      101.3 secs

     total energy              =   -2013.89011281 Ry
     estimated scf accuracy    <       0.05754196 Ry

     iteration # 99     ecut=    30.00 Ry     beta= 0.70
     Davidson diagonalization with overlap

---- Real-time Memory Report at c_bands before calling an iterative solver
           518 MiB given to the printing process from OS
             0 MiB allocation reported by mallinfo(arena+hblkhd)
         77944 MiB available memory on the node where the printing process lives
------------------
     ethr =  1.58E-05,  avg # of iterations =  1.0

     total cpu time spent up to now is      102.0 secs

     total energy              =   -2013.88741436 Ry
     estimated scf accuracy    <       0.20316309 Ry

     iteration #100     ecut=    30.00 Ry     beta= 0.70
     Davidson diagonalization with overlap

---- Real-time Memory Report at c_bands before calling an iterative solver
           518 MiB given to the printing process from OS
             0 MiB allocation reported by mallinfo(arena+hblkhd)
         77944 MiB available memory on the node where the printing process lives
------------------
     ethr =  1.58E-05,  avg # of iterations =  1.0

     total cpu time spent up to now is      103.9 secs

     total energy              =   -2013.89034435 Ry
     estimated scf accuracy    <       0.02736516 Ry

     End of self-consistent calculation

     convergence NOT achieved after 100 iterations: stopping

     Writing config to output data dir new_calculations/myprefix.save/
     Message from routine punch:
     wavefunctions written to file
 
     init_run     :    220.24s CPU      9.93s WALL (       1 calls)
     electrons    :   2804.63s CPU     94.03s WALL (       1 calls)

     Called by init_run:
     wfcinit      :     46.93s CPU      1.64s WALL (       1 calls)
     wfcinit:atom :      0.01s CPU      0.00s WALL (       1 calls)
     wfcinit:wfcr :     46.81s CPU      1.63s WALL (       1 calls)
     potinit      :     43.27s CPU      1.52s WALL (       1 calls)
     hinit0       :    126.32s CPU      6.60s WALL (       1 calls)

     Called by electrons:
     c_bands      :   1218.60s CPU     40.02s WALL (     101 calls)
     sum_band     :    358.91s CPU     12.60s WALL (     101 calls)
     v_of_rho     :     27.91s CPU      0.94s WALL (     101 calls)
     v_h          :      2.73s CPU      0.09s WALL (     101 calls)
     v_xc         :     24.96s CPU      0.84s WALL (     101 calls)
     newd         :     75.94s CPU      2.54s WALL (     101 calls)
     PAW_pot      :   1110.65s CPU     37.50s WALL (     101 calls)
     mix_rho      :      9.99s CPU      0.33s WALL (     101 calls)

     Called by c_bands:
     init_us_2    :      1.85s CPU      0.06s WALL (     203 calls)
     init_us_2:cp :      1.58s CPU      0.05s WALL (     203 calls)
     regterg      :   1208.90s CPU     39.69s WALL (     101 calls)

     Called by sum_band:
     sum_band:wei :      0.36s CPU      0.01s WALL (     101 calls)
     sum_band:loo :    275.45s CPU      9.04s WALL (     101 calls)
     sum_band:buf :      0.07s CPU      0.00s WALL (     101 calls)
     sum_band:ini :      1.17s CPU      0.04s WALL (     101 calls)
     sum_band:cal :      3.07s CPU      0.10s WALL (     101 calls)
     sum_band:bec :      0.53s CPU      0.02s WALL (     101 calls)
     addusdens    :     76.16s CPU      3.32s WALL (     101 calls)
     addusd:skk   :      0.70s CPU      0.02s WALL (     202 calls)
     addusd:dgemm :      6.34s CPU      1.04s WALL (     202 calls)
     addusd:qvan2 :     64.95s CPU      2.12s WALL (     202 calls)

     Called by *egterg:
     rdiaghg      :     30.50s CPU      1.02s WALL (     255 calls)
     regterg:over :      8.56s CPU      0.30s WALL (     155 calls)
     regterg:upda :      1.43s CPU      0.05s WALL (     155 calls)
     regterg:last :      2.22s CPU      0.07s WALL (     149 calls)
     h_psi        :   1202.28s CPU     39.53s WALL (     257 calls)
     s_psi        :      0.68s CPU      0.02s WALL (     257 calls)
     g_psi        :      0.22s CPU      0.01s WALL (     155 calls)

     Called by h_psi:
     h_psi:calbec :      5.72s CPU      0.19s WALL (     257 calls)
     vloc_psi     :   1194.07s CPU     39.25s WALL (     257 calls)
     add_vuspsi   :      1.10s CPU      0.04s WALL (     257 calls)

     General routines
     calbec       :      8.34s CPU      0.28s WALL (     358 calls)
     fft          :    124.89s CPU      6.08s WALL (    1112 calls)
     ffts         :     32.03s CPU      1.11s WALL (     202 calls)
     fftw         :   1399.72s CPU     46.00s WALL (   16892 calls)
     interpolate  :     34.30s CPU      1.18s WALL (     101 calls)
     davcio       :      0.45s CPU      0.06s WALL (      19 calls)
 
     Parallel routines

     PAW routines
     PAW_pot      :   1110.65s CPU     37.50s WALL (     101 calls)
     PAW_symme    :      3.69s CPU      0.12s WALL (     202 calls)
 
     PWSCF        :  50m25.54s CPU   1m44.20s WALL

 
   This run was terminated on:  19:44:49  20May2023            

=------------------------------------------------------------------------------=
   JOB DONE.
=------------------------------------------------------------------------------=
