
     Program PWSCF v.7.0 starts on 21May2023 at  3:25: 2 

     This program is part of the open-source Quantum ESPRESSO suite
     for quantum simulation of materials; please cite
         "P. Giannozzi et al., J. Phys.:Condens. Matter 21 395502 (2009);
         "P. Giannozzi et al., J. Phys.:Condens. Matter 29 465901 (2017);
         "P. Giannozzi et al., J. Chem. Phys. 152 154105 (2020);
          URL http://www.quantum-espresso.org", 
     in publications or presentations arising from this work. More details at
     http://www.quantum-espresso.org/quote

     Parallel version (MPI & OpenMP), running on      32 processor cores
     Number of MPI processes:                 1
     Threads/MPI process:                    32

     MPI processes distributed on     1 nodes
     174113 MiB available memory on the printing compute node when the environment starts
 
     Reading input from espresso_9950.pwi
Warning: card &CELL ignored
Warning: card / ignored

     Current dimensions of program PWSCF are:
     Max number of different atomic species (ntypx) = 10
     Max number of k-points (npk) =  40000
     Max angular momentum in pseudopotentials (lmaxx) =  4
     file Ga.pbe-dn-kjpaw_psl.1.0.0.UPF: wavefunction(s)  4S renormalized

     gamma-point specific algorithms are used
     Message from routine setup:
     using ibrav=0 with symmetry is DISCOURAGED, use correct ibrav instead

     Subspace diagonalization in iterative solution of the eigenvalue problem:
     a serial algorithm will be used

 
     G-vector sticks info
     --------------------
     sticks:   dense  smooth     PW     G-vecs:    dense   smooth      PW
     Sum        4429    2221    559               160447    56739    7081
 
     Using Slab Decomposition
 


     bravais-lattice index     =            0
     lattice parameter (alat)  =      16.3678  a.u.
     unit-cell volume          =    2555.8218 (a.u.)^3
     number of atoms/cell      =           18
     number of atomic types    =            3
     number of electrons       =       230.00
     number of Kohn-Sham states=          138
     kinetic-energy cutoff     =      30.0000  Ry
     charge density cutoff     =     240.0000  Ry
     scf convergence threshold =      1.0E-06
     mixing beta               =       0.7000
     number of iterations used =            8  plain     mixing
     Exchange-correlation= SLA  PW   PBE  PBE
                           (   1   4   3   4   0   0   0)

     celldm(1)=  16.367799  celldm(2)=   0.000000  celldm(3)=   0.000000
     celldm(4)=   0.000000  celldm(5)=   0.000000  celldm(6)=   0.000000

     crystal axes: (cart. coord. in units of alat)
               a(1) = (   1.000000   0.000000   0.000000 )  
               a(2) = (  -0.500000   0.866025   0.000000 )  
               a(3) = (   0.000000   0.000000   0.673022 )  

     reciprocal axes: (cart. coord. in units 2 pi/alat)
               b(1) = (  1.000000  0.577350  0.000000 )  
               b(2) = (  0.000000  1.154701  0.000000 )  
               b(3) = (  0.000000  0.000000  1.485836 )  


     PseudoPot. # 1 for Hf read from file:
     /home/pragov/projects/rrg-bengioy-ad/pragov/crystal_structure_design/SSSP/Hf-sp.oncvpsp.upf
     MD5 check sum: 417ed15784afe83d2e06dacf143de3f8
     Pseudo is Norm-conserving + core correction, Zval = 12.0
     Generated using ONCVPSP code by D. R. Hamann
     Using radial grid of 1656 points,  8 beta functions with: 
                l(1) =   0
                l(2) =   0
                l(3) =   1
                l(4) =   1
                l(5) =   2
                l(6) =   2
                l(7) =   3
                l(8) =   3

     PseudoPot. # 2 for Ga read from file:
     /home/pragov/projects/rrg-bengioy-ad/pragov/crystal_structure_design/SSSP/Ga.pbe-dn-kjpaw_psl.1.0.0.UPF
     MD5 check sum: a27b4342b1af7e5f338de752e9ed7044
     Pseudo is Projector augmented-wave + core cor, Zval = 13.0
     Generated using "atomic" code by A. Dal Corso  v.5.1
     Shape of augmentation charge: PSQ
     Using radial grid of 1205 points,  6 beta functions with: 
                l(1) =   0
                l(2) =   0
                l(3) =   1
                l(4) =   1
                l(5) =   2
                l(6) =   2
     Q(r) pseudized with 0 coefficients 


     PseudoPot. # 3 for Sn read from file:
     /home/pragov/projects/rrg-bengioy-ad/pragov/crystal_structure_design/SSSP/Sn_pbe_v1.uspp.F.UPF
     MD5 check sum: 4cf58ce39ec5d5d420df3dd08604eb00
     Pseudo is Ultrasoft + core correction, Zval = 14.0
     Generated by new atomic code, or converted to UPF format
     Using radial grid of  891 points,  6 beta functions with: 
                l(1) =   0
                l(2) =   0
                l(3) =   1
                l(4) =   1
                l(5) =   2
                l(6) =   2
     Q(r) pseudized with  6 coefficients,  rinner =    1.200   1.200   1.200
                                                       1.200   1.200

     atomic species   valence    mass     pseudopotential
        Hf            12.00   178.49000     Hf( 1.00)
        Ga            13.00    69.72300     Ga( 1.00)
        Sn            14.00   118.71000     Sn( 1.00)

     24 Sym. Ops., with inversion, found (12 have fractional translation)


                                    s                        frac. trans.

      isym =  1     identity                                     

 cryst.   s( 1) = (     1          0          0      )
                  (     0          1          0      )
                  (     0          0          1      )

 cart.    s( 1) = (  1.0000000 -0.0000000  0.0000000 )
                  (  0.0000000  1.0000000  0.0000000 )
                  (  0.0000000  0.0000000  1.0000000 )


      isym =  2     180 deg rotation - cart. axis [0,0,1]        

 cryst.   s( 2) = (    -1          0          0      )    f =(  0.0000000 )
                  (     0         -1          0      )       (  0.0000000 )
                  (     0          0          1      )       (  0.5000000 )

 cart.    s( 2) = ( -1.0000000  0.0000000  0.0000000 )    f =(  0.0000000 )
                  (  0.0000000 -1.0000000  0.0000000 )       (  0.0000000 )
                  (  0.0000000  0.0000000  1.0000000 )       (  0.3365109 )


      isym =  3     180 deg rotation - cart. axis [0,1,0]        

 cryst.   s( 3) = (    -1          0          0      )
                  (     1          1          0      )
                  (     0          0         -1      )

 cart.    s( 3) = ( -1.0000000 -0.0000001  0.0000000 )
                  (  0.0000000  1.0000000  0.0000000 )
                  (  0.0000000  0.0000000 -1.0000000 )


      isym =  4     180 deg rotation - cart. axis [1,0,0]        

 cryst.   s( 4) = (     1          0          0      )    f =(  0.0000000 )
                  (    -1         -1          0      )       (  0.0000000 )
                  (     0          0         -1      )       (  0.5000000 )

 cart.    s( 4) = (  1.0000000  0.0000001  0.0000000 )    f =( -0.0000000 )
                  (  0.0000000 -1.0000000  0.0000000 )       (  0.0000000 )
                  (  0.0000000  0.0000000 -1.0000000 )       (  0.3365109 )


      isym =  5      60 deg rotation - cryst. axis [0,0,1]       

 cryst.   s( 5) = (     1          1          0      )    f =(  0.0000000 )
                  (    -1          0          0      )       (  0.0000000 )
                  (     0          0          1      )       (  0.5000000 )

 cart.    s( 5) = (  0.5000000 -0.8660254  0.0000000 )    f =( -0.0000000 )
                  (  0.8660254  0.5000000  0.0000000 )       (  0.0000000 )
                  (  0.0000000  0.0000000  1.0000000 )       (  0.3365109 )


      isym =  6      60 deg rotation - cryst. axis [0,0,-1]      

 cryst.   s( 6) = (     0         -1          0      )    f =( -0.0000000 )
                  (     1          1          0      )       (  0.0000000 )
                  (     0          0          1      )       (  0.5000000 )

 cart.    s( 6) = (  0.5000000  0.8660254  0.0000000 )    f =( -0.0000000 )
                  ( -0.8660254  0.5000000  0.0000000 )       (  0.0000000 )
                  (  0.0000000  0.0000000  1.0000000 )       (  0.3365109 )


      isym =  7     120 deg rotation - cryst. axis [0,0,1]       

 cryst.   s( 7) = (     0          1          0      )
                  (    -1         -1          0      )
                  (     0          0          1      )

 cart.    s( 7) = ( -0.5000000 -0.8660254  0.0000000 )
                  (  0.8660254 -0.5000000  0.0000000 )
                  (  0.0000000  0.0000000  1.0000000 )


      isym =  8     120 deg rotation - cryst. axis [0,0,-1]      

 cryst.   s( 8) = (    -1         -1          0      )
                  (     1          0          0      )
                  (     0          0          1      )

 cart.    s( 8) = ( -0.5000000  0.8660254  0.0000000 )
                  ( -0.8660254 -0.5000000  0.0000000 )
                  (  0.0000000  0.0000000  1.0000000 )


      isym =  9     180 deg rotation - cryst. axis [1,-1,0]      

 cryst.   s( 9) = (     0         -1          0      )
                  (    -1          0          0      )
                  (     0          0         -1      )

 cart.    s( 9) = (  0.5000000 -0.8660254  0.0000000 )
                  ( -0.8660254 -0.5000000  0.0000000 )
                  (  0.0000000  0.0000000 -1.0000000 )


      isym = 10     180 deg rotation - cryst. axis [2,1,0]       

 cryst.   s(10) = (     1          1          0      )
                  (     0         -1          0      )
                  (     0          0         -1      )

 cart.    s(10) = (  0.5000000  0.8660255  0.0000000 )
                  (  0.8660254 -0.5000000  0.0000000 )
                  (  0.0000000  0.0000000 -1.0000000 )


      isym = 11     180 deg rotation - cryst. axis [0,1,0]       

 cryst.   s(11) = (    -1         -1          0      )    f =(  0.0000000 )
                  (     0          1          0      )       (  0.0000000 )
                  (     0          0         -1      )       (  0.5000000 )

 cart.    s(11) = ( -0.5000000 -0.8660255  0.0000000 )    f =( -0.0000000 )
                  ( -0.8660254  0.5000000  0.0000000 )       (  0.0000000 )
                  (  0.0000000  0.0000000 -1.0000000 )       (  0.3365109 )


      isym = 12     180 deg rotation - cryst. axis [1,1,0]       

 cryst.   s(12) = (     0          1          0      )    f =( -0.0000000 )
                  (     1          0          0      )       (  0.0000000 )
                  (     0          0         -1      )       (  0.5000000 )

 cart.    s(12) = ( -0.5000000  0.8660254  0.0000000 )    f =( -0.0000000 )
                  (  0.8660254  0.5000000  0.0000000 )       (  0.0000000 )
                  (  0.0000000  0.0000000 -1.0000000 )       (  0.3365109 )


      isym = 13     inversion                                    

 cryst.   s(13) = (    -1          0          0      )
                  (     0         -1          0      )
                  (     0          0         -1      )

 cart.    s(13) = ( -1.0000000  0.0000000  0.0000000 )
                  (  0.0000000 -1.0000000  0.0000000 )
                  (  0.0000000  0.0000000 -1.0000000 )


      isym = 14     inv. 180 deg rotation - cart. axis [0,0,1]   

 cryst.   s(14) = (     1          0          0      )    f =(  0.0000000 )
                  (     0          1          0      )       (  0.0000000 )
                  (     0          0         -1      )       (  0.5000000 )

 cart.    s(14) = (  1.0000000 -0.0000000  0.0000000 )    f =(  0.0000000 )
                  (  0.0000000  1.0000000  0.0000000 )       (  0.0000000 )
                  (  0.0000000  0.0000000 -1.0000000 )       (  0.3365109 )


      isym = 15     inv. 180 deg rotation - cart. axis [0,1,0]   

 cryst.   s(15) = (     1          0          0      )
                  (    -1         -1          0      )
                  (     0          0          1      )

 cart.    s(15) = (  1.0000000  0.0000001  0.0000000 )
                  (  0.0000000 -1.0000000  0.0000000 )
                  (  0.0000000  0.0000000  1.0000000 )


      isym = 16     inv. 180 deg rotation - cart. axis [1,0,0]   

 cryst.   s(16) = (    -1          0          0      )    f =( -0.0000000 )
                  (     1          1          0      )       (  0.0000000 )
                  (     0          0          1      )       (  0.5000000 )

 cart.    s(16) = ( -1.0000000 -0.0000001  0.0000000 )    f =( -0.0000000 )
                  (  0.0000000  1.0000000  0.0000000 )       (  0.0000000 )
                  (  0.0000000  0.0000000  1.0000000 )       (  0.3365109 )


      isym = 17     inv.  60 deg rotation - cryst. axis [0,0,1]  

 cryst.   s(17) = (    -1         -1          0      )    f =(  0.0000000 )
                  (     1          0          0      )       (  0.0000000 )
                  (     0          0         -1      )       (  0.5000000 )

 cart.    s(17) = ( -0.5000000  0.8660254  0.0000000 )    f =( -0.0000000 )
                  ( -0.8660254 -0.5000000  0.0000000 )       (  0.0000000 )
                  (  0.0000000  0.0000000 -1.0000000 )       (  0.3365109 )


      isym = 18     inv.  60 deg rotation - cryst. axis [0,0,-1] 

 cryst.   s(18) = (     0          1          0      )    f =(  0.0000000 )
                  (    -1         -1          0      )       (  0.0000000 )
                  (     0          0         -1      )       (  0.5000000 )

 cart.    s(18) = ( -0.5000000 -0.8660254  0.0000000 )    f =( -0.0000000 )
                  (  0.8660254 -0.5000000  0.0000000 )       (  0.0000000 )
                  (  0.0000000  0.0000000 -1.0000000 )       (  0.3365109 )


      isym = 19     inv. 120 deg rotation - cryst. axis [0,0,1]  

 cryst.   s(19) = (     0         -1          0      )
                  (     1          1          0      )
                  (     0          0         -1      )

 cart.    s(19) = (  0.5000000  0.8660254  0.0000000 )
                  ( -0.8660254  0.5000000  0.0000000 )
                  (  0.0000000  0.0000000 -1.0000000 )


      isym = 20     inv. 120 deg rotation - cryst. axis [0,0,-1] 

 cryst.   s(20) = (     1          1          0      )
                  (    -1          0          0      )
                  (     0          0         -1      )

 cart.    s(20) = (  0.5000000 -0.8660254  0.0000000 )
                  (  0.8660254  0.5000000  0.0000000 )
                  (  0.0000000  0.0000000 -1.0000000 )


      isym = 21     inv. 180 deg rotation - cryst. axis [1,-1,0] 

 cryst.   s(21) = (     0          1          0      )
                  (     1          0          0      )
                  (     0          0          1      )

 cart.    s(21) = ( -0.5000000  0.8660254  0.0000000 )
                  (  0.8660254  0.5000000  0.0000000 )
                  (  0.0000000  0.0000000  1.0000000 )


      isym = 22     inv. 180 deg rotation - cryst. axis [2,1,0]  

 cryst.   s(22) = (    -1         -1          0      )
                  (     0          1          0      )
                  (     0          0          1      )

 cart.    s(22) = ( -0.5000000 -0.8660255  0.0000000 )
                  ( -0.8660254  0.5000000  0.0000000 )
                  (  0.0000000  0.0000000  1.0000000 )


      isym = 23     inv. 180 deg rotation - cryst. axis [0,1,0]  

 cryst.   s(23) = (     1          1          0      )    f =(  0.0000000 )
                  (     0         -1          0      )       (  0.0000000 )
                  (     0          0          1      )       (  0.5000000 )

 cart.    s(23) = (  0.5000000  0.8660255  0.0000000 )    f =( -0.0000000 )
                  (  0.8660254 -0.5000000  0.0000000 )       (  0.0000000 )
                  (  0.0000000  0.0000000  1.0000000 )       (  0.3365109 )


      isym = 24     inv. 180 deg rotation - cryst. axis [1,1,0]  

 cryst.   s(24) = (     0         -1          0      )    f =(  0.0000000 )
                  (    -1          0          0      )       (  0.0000000 )
                  (     0          0          1      )       (  0.5000000 )

 cart.    s(24) = (  0.5000000 -0.8660254  0.0000000 )    f =( -0.0000000 )
                  ( -0.8660254 -0.5000000  0.0000000 )       (  0.0000000 )
                  (  0.0000000  0.0000000  1.0000000 )       (  0.3365109 )


   Cartesian axes

     site n.     atom                  positions (alat units)
         1           Hf  tau(   1) = (   0.3661435   0.6341791   0.5047663  )
         2           Hf  tau(   2) = (   0.2677130   0.0000000   0.5047663  )
         3           Hf  tau(   3) = (  -0.1338565   0.2318463   0.5047663  )
         4           Hf  tau(   4) = (   0.1338565   0.2318463   0.1682554  )
         5           Hf  tau(   5) = (   0.7322870   0.0000000   0.1682554  )
         6           Hf  tau(   6) = (   0.6338565   0.6341791   0.1682554  )
         7           Hf  tau(   7) = (   0.5000005   0.2886748   0.0000000  )
         8           Hf  tau(   8) = (  -0.0000005   0.5773505   0.0000000  )
         9           Hf  tau(   9) = (  -0.0000005   0.5773505   0.3365109  )
        10           Hf  tau(  10) = (   0.5000005   0.2886748   0.3365109  )
        11           Ga  tau(  11) = (   0.0000000   0.0000000   0.0000000  )
        12           Ga  tau(  12) = (   0.0000000   0.0000000   0.3365109  )
        13           Sn  tau(  13) = (   0.1943710   0.3366604   0.5047663  )
        14           Sn  tau(  14) = (   0.6112580   0.0000000   0.5047663  )
        15           Sn  tau(  15) = (  -0.3056290   0.5293649   0.5047663  )
        16           Sn  tau(  16) = (   0.3056290   0.5293649   0.1682554  )
        17           Sn  tau(  17) = (   0.3887420   0.0000000   0.1682554  )
        18           Sn  tau(  18) = (   0.8056290   0.3366604   0.1682554  )

   Crystallographic axes

     site n.     atom                  positions (cryst. coord.)
         1           Hf  tau(   1) = (  0.7322870  0.7322870  0.7500000  )
         2           Hf  tau(   2) = (  0.2677130  0.0000000  0.7500000  )
         3           Hf  tau(   3) = ( -0.0000000  0.2677130  0.7500000  )
         4           Hf  tau(   4) = (  0.2677130  0.2677130  0.2500000  )
         5           Hf  tau(   5) = (  0.7322870  0.0000000  0.2500000  )
         6           Hf  tau(   6) = (  1.0000000  0.7322870  0.2500000  )
         7           Hf  tau(   7) = (  0.6666670  0.3333330  0.0000000  )
         8           Hf  tau(   8) = (  0.3333330  0.6666670  0.0000000  )
         9           Hf  tau(   9) = (  0.3333330  0.6666670  0.5000000  )
        10           Hf  tau(  10) = (  0.6666670  0.3333330  0.5000000  )
        11           Ga  tau(  11) = (  0.0000000  0.0000000  0.0000000  )
        12           Ga  tau(  12) = (  0.0000000  0.0000000  0.5000000  )
        13           Sn  tau(  13) = (  0.3887420  0.3887420  0.7500000  )
        14           Sn  tau(  14) = (  0.6112580  0.0000000  0.7500000  )
        15           Sn  tau(  15) = (  0.0000000  0.6112580  0.7500000  )
        16           Sn  tau(  16) = (  0.6112580  0.6112580  0.2500000  )
        17           Sn  tau(  17) = (  0.3887420  0.0000000  0.2500000  )
        18           Sn  tau(  18) = (  1.0000000  0.3887420  0.2500000  )

     number of k points=     1  Methfessel-Paxton smearing, width (Ry)=  0.0010
                       cart. coord. in units 2pi/alat
        k(    1) = (   0.0000000   0.0000000   0.0000000), wk =   2.0000000

                       cryst. coord.
        k(    1) = (   0.0000000   0.0000000   0.0000000), wk =   2.0000000

     Dense  grid:    80224 G-vectors     FFT dimensions: (  81,  81,  60)

     Smooth grid:    28370 G-vectors     FFT dimensions: (  60,  60,  40)

     Dynamical RAM for                 wfc:       7.47 MB

     Dynamical RAM for     wfc (w. buffer):       7.47 MB

     Dynamical RAM for           str. fact:       3.67 MB

     Dynamical RAM for           local pot:       0.00 MB

     Dynamical RAM for          nlocal pot:      25.11 MB

     Dynamical RAM for                qrad:       8.96 MB

     Dynamical RAM for          rho,v,vnew:      12.68 MB

     Dynamical RAM for               rhoin:       4.23 MB

     Dynamical RAM for            rho*nmix:      19.59 MB

     Dynamical RAM for           G-vectors:       4.81 MB

     Dynamical RAM for          h,s,v(r/c):       1.74 MB

     Dynamical RAM for          <psi|beta>:       0.49 MB

     Dynamical RAM for                 psi:      14.93 MB

     Dynamical RAM for                hpsi:      14.93 MB

     Dynamical RAM for                spsi:      14.93 MB

     Dynamical RAM for      wfcinit/wfcrot:      19.29 MB

     Dynamical RAM for           addusdens:     249.72 MB

     Dynamical RAM for          addusforce:     262.60 MB

     Dynamical RAM for         addusstress:     275.43 MB

     Estimated static dynamical RAM per process >      86.83 MB

     Estimated max dynamical RAM per process >     381.85 MB

     Initial potential from superposition of free atoms

     starting charge     223.9753, renormalised to     230.0000
     Starting wfcs are  172 randomized atomic wfcs
     Checking if some PAW data can be deallocated... 

     total cpu time spent up to now is        6.7 secs

     Self-consistent Calculation

     iteration #  1     ecut=    30.00 Ry     beta= 0.70
     Davidson diagonalization with overlap

---- Real-time Memory Report at c_bands before calling an iterative solver
           715 MiB given to the printing process from OS
             0 MiB allocation reported by mallinfo(arena+hblkhd)
        173774 MiB available memory on the node where the printing process lives
------------------
     ethr =  1.00E-02,  avg # of iterations =  3.0

     total cpu time spent up to now is        9.3 secs

     total energy              =   -2658.27229682 Ry
     estimated scf accuracy    <       8.68918309 Ry

     iteration #  2     ecut=    30.00 Ry     beta= 0.70
     Davidson diagonalization with overlap

---- Real-time Memory Report at c_bands before calling an iterative solver
           849 MiB given to the printing process from OS
             0 MiB allocation reported by mallinfo(arena+hblkhd)
        173695 MiB available memory on the node where the printing process lives
------------------
     ethr =  3.78E-03,  avg # of iterations =  6.0

     total cpu time spent up to now is       12.8 secs

     total energy              =   -2651.19620273 Ry
     estimated scf accuracy    <     107.09615309 Ry

     iteration #  3     ecut=    30.00 Ry     beta= 0.70
     Davidson diagonalization with overlap

---- Real-time Memory Report at c_bands before calling an iterative solver
           871 MiB given to the printing process from OS
             0 MiB allocation reported by mallinfo(arena+hblkhd)
        173674 MiB available memory on the node where the printing process lives
------------------
     ethr =  3.78E-03,  avg # of iterations =  7.0

     total cpu time spent up to now is       15.9 secs

     total energy              =   -2663.51328783 Ry
     estimated scf accuracy    <       0.74714906 Ry

     iteration #  4     ecut=    30.00 Ry     beta= 0.70
     Davidson diagonalization with overlap

---- Real-time Memory Report at c_bands before calling an iterative solver
           874 MiB given to the printing process from OS
             0 MiB allocation reported by mallinfo(arena+hblkhd)
        173673 MiB available memory on the node where the printing process lives
------------------
     ethr =  3.25E-04,  avg # of iterations =  9.0

     total cpu time spent up to now is       18.9 secs

     total energy              =   -2663.66117976 Ry
     estimated scf accuracy    <       0.14465878 Ry

     iteration #  5     ecut=    30.00 Ry     beta= 0.70
     Davidson diagonalization with overlap

---- Real-time Memory Report at c_bands before calling an iterative solver
           875 MiB given to the printing process from OS
             0 MiB allocation reported by mallinfo(arena+hblkhd)
        173672 MiB available memory on the node where the printing process lives
------------------
     ethr =  6.29E-05,  avg # of iterations = 16.0

     total cpu time spent up to now is       22.0 secs

     total energy              =   -2663.66167624 Ry
     estimated scf accuracy    <       0.10033003 Ry

     iteration #  6     ecut=    30.00 Ry     beta= 0.70
     Davidson diagonalization with overlap

---- Real-time Memory Report at c_bands before calling an iterative solver
           876 MiB given to the printing process from OS
             0 MiB allocation reported by mallinfo(arena+hblkhd)
        173671 MiB available memory on the node where the printing process lives
------------------
     ethr =  4.36E-05,  avg # of iterations =  5.0

     total cpu time spent up to now is       24.6 secs

     total energy              =   -2663.66938338 Ry
     estimated scf accuracy    <       0.14083864 Ry

     iteration #  7     ecut=    30.00 Ry     beta= 0.70
     Davidson diagonalization with overlap

---- Real-time Memory Report at c_bands before calling an iterative solver
           878 MiB given to the printing process from OS
             0 MiB allocation reported by mallinfo(arena+hblkhd)
        173674 MiB available memory on the node where the printing process lives
------------------
     ethr =  4.36E-05,  avg # of iterations =  2.0

     total cpu time spent up to now is       27.0 secs

     total energy              =   -2663.67959699 Ry
     estimated scf accuracy    <       0.02803538 Ry

     iteration #  8     ecut=    30.00 Ry     beta= 0.70
     Davidson diagonalization with overlap

---- Real-time Memory Report at c_bands before calling an iterative solver
           878 MiB given to the printing process from OS
             0 MiB allocation reported by mallinfo(arena+hblkhd)
        173672 MiB available memory on the node where the printing process lives
------------------
     ethr =  1.22E-05,  avg # of iterations =  3.0

     total cpu time spent up to now is       29.6 secs

     total energy              =   -2663.68402684 Ry
     estimated scf accuracy    <       0.00577525 Ry

     iteration #  9     ecut=    30.00 Ry     beta= 0.70
     Davidson diagonalization with overlap

---- Real-time Memory Report at c_bands before calling an iterative solver
           880 MiB given to the printing process from OS
             0 MiB allocation reported by mallinfo(arena+hblkhd)
        173674 MiB available memory on the node where the printing process lives
------------------
     ethr =  2.51E-06,  avg # of iterations = 13.0

     total cpu time spent up to now is       32.5 secs

     total energy              =   -2663.68464173 Ry
     estimated scf accuracy    <       0.00061389 Ry

     iteration # 10     ecut=    30.00 Ry     beta= 0.70
     Davidson diagonalization with overlap

---- Real-time Memory Report at c_bands before calling an iterative solver
           880 MiB given to the printing process from OS
             0 MiB allocation reported by mallinfo(arena+hblkhd)
        173675 MiB available memory on the node where the printing process lives
------------------
     ethr =  2.67E-07,  avg # of iterations =  3.0

     total cpu time spent up to now is       35.1 secs

     total energy              =   -2663.68476698 Ry
     estimated scf accuracy    <       0.00020656 Ry

     iteration # 11     ecut=    30.00 Ry     beta= 0.70
     Davidson diagonalization with overlap

---- Real-time Memory Report at c_bands before calling an iterative solver
           881 MiB given to the printing process from OS
             0 MiB allocation reported by mallinfo(arena+hblkhd)
        173676 MiB available memory on the node where the printing process lives
------------------
     ethr =  8.98E-08,  avg # of iterations =  2.0

     total cpu time spent up to now is       37.5 secs

     total energy              =   -2663.68478970 Ry
     estimated scf accuracy    <       0.00006803 Ry

     iteration # 12     ecut=    30.00 Ry     beta= 0.70
     Davidson diagonalization with overlap

---- Real-time Memory Report at c_bands before calling an iterative solver
           881 MiB given to the printing process from OS
             0 MiB allocation reported by mallinfo(arena+hblkhd)
        173678 MiB available memory on the node where the printing process lives
------------------
     ethr =  2.96E-08,  avg # of iterations =  2.0

     total cpu time spent up to now is       40.0 secs

     total energy              =   -2663.68480183 Ry
     estimated scf accuracy    <       0.00000904 Ry

     iteration # 13     ecut=    30.00 Ry     beta= 0.70
     Davidson diagonalization with overlap

---- Real-time Memory Report at c_bands before calling an iterative solver
           881 MiB given to the printing process from OS
             0 MiB allocation reported by mallinfo(arena+hblkhd)
        173673 MiB available memory on the node where the printing process lives
------------------
     ethr =  3.93E-09,  avg # of iterations =  5.0

     total cpu time spent up to now is       42.7 secs

     total energy              =   -2663.68480401 Ry
     estimated scf accuracy    <       0.00000277 Ry

     iteration # 14     ecut=    30.00 Ry     beta= 0.70
     Davidson diagonalization with overlap

---- Real-time Memory Report at c_bands before calling an iterative solver
           881 MiB given to the printing process from OS
             0 MiB allocation reported by mallinfo(arena+hblkhd)
        173679 MiB available memory on the node where the printing process lives
------------------
     ethr =  1.20E-09,  avg # of iterations =  5.0

     total cpu time spent up to now is       45.3 secs

     End of self-consistent calculation

          k = 0.0000 0.0000 0.0000 (  3541 PWs)   bands (ev):

   -47.7234 -47.7123 -47.7120 -47.7099 -47.7067 -47.7063 -47.0731 -47.0709
   -47.0209 -47.0192 -16.5446 -16.5106 -16.5103 -16.5078 -16.5029 -16.5027
   -16.4578 -16.4231 -16.4229 -16.4109 -16.4106 -16.4058 -16.3868 -16.3865
   -16.3729 -16.3726 -16.3691 -16.3431 -16.0279 -16.0203 -15.9376 -15.9376
   -15.9375 -15.9375 -15.8443 -15.8443 -15.8434 -15.8434 -15.1416 -15.1398
    -6.6227  -6.6177  -6.6175  -6.6168  -6.6135  -6.6132  -6.6023  -6.5982
    -6.5980  -6.5890  -6.5888  -6.5877  -6.5836  -6.5834  -6.5722  -6.5712
    -6.5694  -6.5616  -6.5614  -6.5506  -6.5505  -6.5450  -6.5450  -6.5447
    -6.5375  -6.5372  -6.5301  -6.5299  -6.5259  -6.5251  -0.3405  -0.2830
    -0.2830  -0.2011  -0.2011  -0.1879  -0.1879  -0.1296  -0.1295  -0.0524
     4.1977   6.2324   6.2326   6.7709   6.9417   6.9418   7.4505   9.0903
     9.1599  10.2152  10.2153  10.2383  11.1021  11.2295  11.2296  11.5567
    11.5568  11.6458  11.8374  11.8374  12.2941  12.2941  12.5689  12.5690
    12.9818  13.2414  13.2944  13.4738  13.4738  13.5435  13.6458  13.6458
    13.9606  13.9607  14.1878  14.3164  14.3164  15.0201  15.3816  15.3816
    16.3885  16.6925  16.6926  16.7207  16.8166  16.8167  16.9084  16.9960
    17.0067  17.0068  17.5009  17.5011  17.5566  17.5566  17.5807  17.8000
    17.8001  17.8158

     occupation numbers 
     1.0000   1.0000   1.0000   1.0000   1.0000   1.0000   1.0000   1.0000
     1.0000   1.0000   1.0000   1.0000   1.0000   1.0000   1.0000   1.0000
     1.0000   1.0000   1.0000   1.0000   1.0000   1.0000   1.0000   1.0000
     1.0000   1.0000   1.0000   1.0000   1.0000   1.0000   1.0000   1.0000
     1.0000   1.0000   1.0000   1.0000   1.0000   1.0000   1.0000   1.0000
     1.0000   1.0000   1.0000   1.0000   1.0000   1.0000   1.0000   1.0000
     1.0000   1.0000   1.0000   1.0000   1.0000   1.0000   1.0000   1.0000
     1.0000   1.0000   1.0000   1.0000   1.0000   1.0000   1.0000   1.0000
     1.0000   1.0000   1.0000   1.0000   1.0000   1.0000   1.0000   1.0000
     1.0000   1.0000   1.0000   1.0000   1.0000   1.0000   1.0000   1.0000
     1.0000   1.0000   1.0000   1.0000   1.0000   1.0000   1.0000   1.0000
     1.0000   1.0000   1.0000   1.0000   1.0000   1.0000   1.0000   1.0000
     1.0000   1.0000   1.0000   1.0000   1.0000   1.0000   1.0000   1.0000
     1.0000   1.0000   1.0000   1.0000   1.0000   1.0000   1.0000   1.0000
     1.0000   1.0000   1.0000  -0.0000  -0.0000  -0.0000  -0.0000  -0.0000
    -0.0000  -0.0000  -0.0000  -0.0000  -0.0000  -0.0000  -0.0000  -0.0000
    -0.0000  -0.0000  -0.0000  -0.0000  -0.0000  -0.0000  -0.0000  -0.0000
    -0.0000  -0.0000

     the Fermi energy is    14.2516 ev

!    total energy              =   -2663.68480445 Ry
     estimated scf accuracy    <       0.00000021 Ry
     smearing contrib. (-TS)   =       0.00000000 Ry
     internal energy E=F+TS    =   -2663.68480445 Ry

     The total energy is F=E-TS. E is the sum of the following terms:
     one-electron contribution =    -638.96062666 Ry
     hartree contribution      =     464.97242670 Ry
     xc contribution           =    -647.66983982 Ry
     ewald contribution        =   -1620.22551523 Ry
     one-center paw contrib.   =    -221.80124945 Ry
      -> PAW hartree energy AE =     289.80000754 Ry
      -> PAW hartree energy PS =    -285.27452772 Ry
      -> PAW xc energy AE      =    -302.11010646 Ry
      -> PAW xc energy PS      =      75.78337719 Ry
      -> total E_H with PAW    =     469.49790652 Ry
      -> total E_XC with PAW   =    -873.99656909 Ry

     convergence has been achieved in  14 iterations

     Forces acting on atoms (cartesian axes, Ry/au):

     atom    1 type  1   force =    -0.00051696   -0.00089541   -0.00000000
     atom    2 type  1   force =     0.00103393    0.00000000    0.00000000
     atom    3 type  1   force =    -0.00051696    0.00089541    0.00000000
     atom    4 type  1   force =     0.00051696    0.00089541    0.00000000
     atom    5 type  1   force =    -0.00103393   -0.00000000   -0.00000000
     atom    6 type  1   force =     0.00051696   -0.00089541    0.00000000
     atom    7 type  1   force =     0.00000000   -0.00000000    0.00000000
     atom    8 type  1   force =    -0.00000000    0.00000000   -0.00000000
     atom    9 type  1   force =    -0.00000000   -0.00000000    0.00000000
     atom   10 type  1   force =     0.00000000   -0.00000000    0.00000000
     atom   11 type  2   force =     0.00000000    0.00000000    0.00000000
     atom   12 type  2   force =     0.00000000    0.00000000    0.00000000
     atom   13 type  3   force =     0.00264717    0.00458503   -0.00000000
     atom   14 type  3   force =    -0.00529433   -0.00000000   -0.00000000
     atom   15 type  3   force =     0.00264717   -0.00458503    0.00000000
     atom   16 type  3   force =    -0.00264717   -0.00458503    0.00000000
     atom   17 type  3   force =     0.00529433    0.00000000    0.00000000
     atom   18 type  3   force =    -0.00264717    0.00458503   -0.00000000
     The non-local contrib.  to forces
     atom    1 type  1   force =    -0.01226444   -0.02124264    0.00000000
     atom    2 type  1   force =     0.02452888    0.00000000    0.00000000
     atom    3 type  1   force =    -0.01226444    0.02124264    0.00000000
     atom    4 type  1   force =     0.01226444    0.02124264   -0.00000000
     atom    5 type  1   force =    -0.02452888   -0.00000000    0.00000000
     atom    6 type  1   force =     0.01226444   -0.02124264   -0.00000000
     atom    7 type  1   force =     0.00000000    0.00000000    0.00000000
     atom    8 type  1   force =    -0.00000000   -0.00000000    0.00000000
     atom    9 type  1   force =     0.00000000   -0.00000000   -0.00000000
     atom   10 type  1   force =     0.00000000    0.00000000    0.00000000
     atom   11 type  2   force =     0.00000000    0.00000000    0.00000000
     atom   12 type  2   force =     0.00000000   -0.00000000    0.00000000
     atom   13 type  3   force =    -0.05023090   -0.08700248    0.00000000
     atom   14 type  3   force =     0.10046180    0.00000000   -0.00000000
     atom   15 type  3   force =    -0.05023090    0.08700247    0.00000000
     atom   16 type  3   force =     0.05023090    0.08700248    0.00000000
     atom   17 type  3   force =    -0.10046180   -0.00000000    0.00000000
     atom   18 type  3   force =     0.05023090   -0.08700247   -0.00000000
     The ionic contribution  to forces
     atom    1 type  1   force =    -2.72276055   -4.71595986    0.00000000
     atom    2 type  1   force =     5.44544227    0.00004570    0.00000000
     atom    3 type  1   force =    -2.72268178    4.71591406    0.00000000
     atom    4 type  1   force =     2.72276055    4.71595986    0.00000000
     atom    5 type  1   force =    -5.44544227   -0.00004570    0.00000000
     atom    6 type  1   force =     2.72268178   -4.71591405    0.00000000
     atom    7 type  1   force =    -0.00010354    0.00005978   -0.00000000
     atom    8 type  1   force =     0.00010354   -0.00005978    0.00000000
     atom    9 type  1   force =     0.00010354   -0.00005978   -0.00000000
     atom   10 type  1   force =    -0.00010354    0.00005978    0.00000000
     atom   11 type  2   force =     0.00000000   -0.00000000   -0.00000000
     atom   12 type  2   force =     0.00000000   -0.00000000    0.00000000
     atom   13 type  3   force =     0.69841306    1.20968697    0.00000000
     atom   14 type  3   force =    -1.39673850   -0.00005040    0.00000000
     atom   15 type  3   force =     0.69832566   -1.20963620    0.00000000
     atom   16 type  3   force =    -0.69841306   -1.20968697    0.00000000
     atom   17 type  3   force =     1.39673850    0.00005040    0.00000000
     atom   18 type  3   force =    -0.69832566    1.20963620    0.00000000
     The local contribution  to forces
     atom    1 type  1   force =     2.72954914    4.72687283   -0.00006824
     atom    2 type  1   force =    -5.45816045    0.00003778   -0.00012329
     atom    3 type  1   force =     2.72931521   -4.72705388   -0.00014771
     atom    4 type  1   force =    -2.72918800   -4.72686936    0.00016845
     atom    5 type  1   force =     5.45834203    0.00023480    0.00007073
     atom    6 type  1   force =    -2.72935901    4.72684564    0.00010459
     atom    7 type  1   force =    -0.00004297    0.00011463    0.00032539
     atom    8 type  1   force =    -0.00009860    0.00004439    0.00027286
     atom    9 type  1   force =    -0.00013117   -0.00000839   -0.00027504
     atom   10 type  1   force =    -0.00004839    0.00013016   -0.00031583
     atom   11 type  2   force =     0.00000549   -0.00004504    0.00027377
     atom   12 type  2   force =     0.00006239    0.00001958   -0.00026695
     atom   13 type  3   force =    -0.64740030   -1.12156168   -0.00018125
     atom   14 type  3   force =     1.29453400    0.00008873   -0.00009742
     atom   15 type  3   force =    -0.64771792    1.12162096   -0.00014734
     atom   16 type  3   force =     0.64772972    1.12123247    0.00011702
     atom   17 type  3   force =    -1.29477123   -0.00001828    0.00013473
     atom   18 type  3   force =     0.64740898   -1.12159415    0.00019252
     The core correction contribution to forces
     atom    1 type  1   force =     0.00527571    0.00911613    0.00000106
     atom    2 type  1   force =    -0.01052314    0.00000255   -0.00000076
     atom    3 type  1   force =     0.00527129   -0.00911978   -0.00000129
     atom    4 type  1   force =    -0.00526864   -0.00911572    0.00000248
     atom    5 type  1   force =     0.01053303    0.00000488   -0.00000072
     atom    6 type  1   force =    -0.00527413    0.00911932    0.00000025
     atom    7 type  1   force =    -0.00000162    0.00000310    0.00000255
     atom    8 type  1   force =     0.00000053    0.00000119    0.00000173
     atom    9 type  1   force =    -0.00000086   -0.00000124   -0.00000213
     atom   10 type  1   force =    -0.00000229    0.00000302   -0.00000165
     atom   11 type  2   force =    -0.00000031    0.00000025   -0.00000001
     atom   12 type  2   force =     0.00000026    0.00000121    0.00000020
     atom   13 type  3   force =     0.00209989    0.00364256   -0.00000222
     atom   14 type  3   force =    -0.00421163    0.00000088   -0.00000046
     atom   15 type  3   force =     0.00209951   -0.00363973   -0.00000117
     atom   16 type  3   force =    -0.00209871   -0.00364407    0.00000065
     atom   17 type  3   force =     0.00420824   -0.00000254    0.00000121
     atom   18 type  3   force =    -0.00210078    0.00363851    0.00000269
     The Hubbard contrib.    to forces
     atom    1 type  1   force =     0.00000000    0.00000000    0.00000000
     atom    2 type  1   force =     0.00000000    0.00000000    0.00000000
     atom    3 type  1   force =     0.00000000    0.00000000    0.00000000
     atom    4 type  1   force =     0.00000000    0.00000000    0.00000000
     atom    5 type  1   force =     0.00000000    0.00000000    0.00000000
     atom    6 type  1   force =     0.00000000    0.00000000    0.00000000
     atom    7 type  1   force =     0.00000000    0.00000000    0.00000000
     atom    8 type  1   force =     0.00000000    0.00000000    0.00000000
     atom    9 type  1   force =     0.00000000    0.00000000    0.00000000
     atom   10 type  1   force =     0.00000000    0.00000000    0.00000000
     atom   11 type  2   force =     0.00000000    0.00000000    0.00000000
     atom   12 type  2   force =     0.00000000    0.00000000    0.00000000
     atom   13 type  3   force =     0.00000000    0.00000000    0.00000000
     atom   14 type  3   force =     0.00000000    0.00000000    0.00000000
     atom   15 type  3   force =     0.00000000    0.00000000    0.00000000
     atom   16 type  3   force =     0.00000000    0.00000000    0.00000000
     atom   17 type  3   force =     0.00000000    0.00000000    0.00000000
     atom   18 type  3   force =     0.00000000    0.00000000    0.00000000
     The SCF correction term to forces
     atom    1 type  1   force =    -0.00030292    0.00032096    0.00007698
     atom    2 type  1   force =    -0.00019086   -0.00007221    0.00012096
     atom    3 type  1   force =    -0.00012699   -0.00011848    0.00014758
     atom    4 type  1   force =    -0.00005629   -0.00031691   -0.00016227
     atom    5 type  1   force =     0.00003184   -0.00018953   -0.00007338
     atom    6 type  1   force =     0.00017228    0.00032868   -0.00010660
     atom    7 type  1   force =     0.00012519   -0.00019866   -0.00032067
     atom    8 type  1   force =     0.00001627    0.00004444   -0.00026792
     atom    9 type  1   force =     0.00004674    0.00009632    0.00026864
     atom   10 type  1   force =     0.00013050   -0.00021506    0.00031635
     atom   11 type  2   force =    -0.00000258    0.00002598   -0.00030058
     atom   12 type  2   force =    -0.00001575   -0.00005256    0.00030068
     atom   13 type  3   force =    -0.00025756   -0.00014015    0.00021010
     atom   14 type  3   force =     0.00069305   -0.00004361    0.00010575
     atom   15 type  3   force =     0.00018838    0.00006909    0.00015101
     atom   16 type  3   force =    -0.00012912    0.00055053   -0.00012832
     atom   17 type  3   force =    -0.00041714   -0.00002815   -0.00014728
     atom   18 type  3   force =     0.00014834   -0.00006740   -0.00021638

     Total force =     0.013213     Total SCF correction =     0.001608
     SCF correction compared to forces is large: reduce conv_thr to get better values


     Computing stress (Cartesian axis) and pressure

          total   stress  (Ry/bohr**3)                   (kbar)     P=     -172.74
  -0.00118317  -0.00000000   0.00000000         -174.05       -0.00        0.00
  -0.00000000  -0.00118317   0.00000000           -0.00     -174.05        0.00
   0.00000000   0.00000000  -0.00115639            0.00        0.00     -170.11

     kinetic stress (kbar)  16960.65      0.00      0.00
                                0.00  16960.65      0.00
                                0.00      0.00  17192.71

     local   stress (kbar)   3976.48     -0.00      0.00
                               -0.00   3976.46      0.00
                                0.00      0.00   2743.55

     nonloc. stress (kbar)   8719.31      0.00      0.00
                                0.00   8719.31     -0.00
                                0.00     -0.00   8721.05

     hartree stress (kbar)   8710.27      0.01     -0.00
                                0.01   8710.27     -0.00
                               -0.00     -0.00   9341.81

     exc-cor stress (kbar)  13514.47     -0.00     -0.00
                               -0.00  13514.47     -0.00
                               -0.00     -0.00  13517.33

     corecor stress (kbar) -20845.28      0.00      0.00
                                0.00 -20845.28      0.00
                                0.00      0.00 -20851.33

     ewald   stress (kbar) -31209.94      0.00     -0.00
                                0.00 -31209.93     -0.00
                               -0.00     -0.00 -30835.22

     hubbard stress (kbar)      0.00      0.00      0.00
                                0.00      0.00      0.00
                                0.00      0.00      0.00

     DFT-D   stress (kbar)      0.00      0.00      0.00
                                0.00      0.00      0.00
                                0.00      0.00      0.00

     XDM     stress (kbar)      0.00      0.00      0.00
                                0.00      0.00      0.00
                                0.00      0.00      0.00

     dft-nl  stress (kbar)      0.00      0.00      0.00
                                0.00      0.00      0.00
                                0.00      0.00      0.00

     TS-vdW  stress (kbar)      0.00      0.00      0.00
                                0.00      0.00      0.00
                                0.00      0.00      0.00


                                0.00      0.00      0.00
                                0.00      0.00      0.00


                                0.00      0.00      0.00


     Writing all to output data dir new_calculations/myprefix.save/
