
     Program PWSCF v.7.0 starts on 20May2023 at 10: 6:10 

     This program is part of the open-source Quantum ESPRESSO suite
     for quantum simulation of materials; please cite
         "P. Giannozzi et al., J. Phys.:Condens. Matter 21 395502 (2009);
         "P. Giannozzi et al., J. Phys.:Condens. Matter 29 465901 (2017);
         "P. Giannozzi et al., J. Chem. Phys. 152 154105 (2020);
          URL http://www.quantum-espresso.org", 
     in publications or presentations arising from this work. More details at
     http://www.quantum-espresso.org/quote

     Parallel version (MPI & OpenMP), running on      32 processor cores
     Number of MPI processes:                 1
     Threads/MPI process:                    32

     MPI processes distributed on     1 nodes
     171712 MiB available memory on the printing compute node when the environment starts
 
     Reading input from espresso_8361.pwi
Warning: card &CELL ignored
Warning: card / ignored

     Current dimensions of program PWSCF are:
     Max number of different atomic species (ntypx) = 10
     Max number of k-points (npk) =  40000
     Max angular momentum in pseudopotentials (lmaxx) =  4
     file Mg.pbe-n-kjpaw_psl.0.3.0.UPF: wavefunction(s)  3S renormalized

     gamma-point specific algorithms are used

     Subspace diagonalization in iterative solution of the eigenvalue problem:
     a serial algorithm will be used

 
     G-vector sticks info
     --------------------
     sticks:   dense  smooth     PW     G-vecs:    dense   smooth      PW
     Sum        1569     791    195                46953    16643    2079
 
     Using Slab Decomposition
 


     bravais-lattice index     =            0
     lattice parameter (alat)  =      10.0442  a.u.
     unit-cell volume          =     747.7480 (a.u.)^3
     number of atoms/cell      =            6
     number of atomic types    =            2
     number of electrons       =        66.00
     number of Kohn-Sham states=           40
     kinetic-energy cutoff     =      30.0000  Ry
     charge density cutoff     =     240.0000  Ry
     scf convergence threshold =      1.0E-06
     mixing beta               =       0.7000
     number of iterations used =            8  plain     mixing
     Exchange-correlation= SLA  PW   PBE  PBE
                           (   1   4   3   4   0   0   0)

     celldm(1)=  10.044218  celldm(2)=   0.000000  celldm(3)=   0.000000
     celldm(4)=   0.000000  celldm(5)=   0.000000  celldm(6)=   0.000000

     crystal axes: (cart. coord. in units of alat)
               a(1) = (   1.000000   0.000000   0.000000 )  
               a(2) = (   0.577045   0.816713   0.000000 )  
               a(3) = (   0.512292   0.265303   0.903520 )  

     reciprocal axes: (cart. coord. in units 2 pi/alat)
               b(1) = (  1.000000 -0.706545 -0.359530 )  
               b(2) = (  0.000000  1.224421 -0.359530 )  
               b(3) = (  0.000000  0.000000  1.106783 )  


     PseudoPot. # 1 for Mg read from file:
     /home/pragov/projects/rrg-bengioy-ad/pragov/crystal_structure_design/SSSP/Mg.pbe-n-kjpaw_psl.0.3.0.UPF
     MD5 check sum: 24ecedc7f3e3cbe212e682f4413594e4
     Pseudo is Projector augmented-wave + core cor, Zval =  2.0
     Generated using "atomic" code by A. Dal Corso  v.5.0.99 svn rev. 10869
     Shape of augmentation charge: PSQ
     Using radial grid of 1129 points,  4 beta functions with: 
                l(1) =   0
                l(2) =   0
                l(3) =   1
                l(4) =   1
     Q(r) pseudized with 0 coefficients 


     PseudoPot. # 2 for Zn read from file:
     /home/pragov/projects/rrg-bengioy-ad/pragov/crystal_structure_design/SSSP/Zn_pbe_v1.uspp.F.UPF
     MD5 check sum: df62231357ef9e81f77b2b3087fa5675
     Pseudo is Ultrasoft, Zval = 20.0
     Generated by new atomic code, or converted to UPF format
     Using radial grid of  943 points,  6 beta functions with: 
                l(1) =   0
                l(2) =   0
                l(3) =   1
                l(4) =   1
                l(5) =   2
                l(6) =   2
     Q(r) pseudized with  8 coefficients,  rinner =    1.100   1.100   1.100
                                                       1.100   1.100

     atomic species   valence    mass     pseudopotential
        Mg             2.00    24.30500     Mg( 1.00)
        Zn            20.00    65.38000     Zn( 1.00)

     No symmetry found


                                    s                        frac. trans.

      isym =  1     identity                                     

 cryst.   s( 1) = (     1          0          0      )
                  (     0          1          0      )
                  (     0          0          1      )

 cart.    s( 1) = (  1.0000000  0.0000000  0.0000000 )
                  (  0.0000000  1.0000000 -0.0000000 )
                  (  0.0000000  0.0000000  1.0000000 )


   Cartesian axes

     site n.     atom                  positions (alat units)
         1           Mg  tau(   1) = (   0.1872453   0.2498574   0.0142621  )
         2           Mg  tau(   2) = (   1.7772257   1.0732692   0.8892577  )
         3           Mg  tau(   3) = (   1.0293567   0.5705738   0.4517599  )
         4           Zn  tau(   4) = (   0.7224575   0.5359252   0.0000000  )
         5           Zn  tau(   5) = (   1.5379867   0.8028968   0.4573093  )
         6           Zn  tau(   6) = (   0.5461134   0.2892300   0.4462105  )

   Crystallographic axes

     site n.     atom                  positions (cryst. coord.)
         1           Mg  tau(   1) = (  0.0055820  0.3008030  0.0157850  )
         2           Mg  tau(   2) = (  0.6991970  0.9944180  0.9842150  )
         3           Mg  tau(   3) = (  0.4637990  0.5362010  0.5000000  )
         4           Zn  tau(   4) = (  0.3438020  0.6561980  0.0000000  )
         5           Zn  tau(   5) = (  0.8062870  0.8186670  0.5061420  )
         6           Zn  tau(   6) = (  0.1813330  0.1937130  0.4938580  )

     number of k points=     1  Methfessel-Paxton smearing, width (Ry)=  0.0010
                       cart. coord. in units 2pi/alat
        k(    1) = (   0.0000000   0.0000000   0.0000000), wk =   2.0000000

                       cryst. coord.
        k(    1) = (   0.0000000   0.0000000   0.0000000), wk =   2.0000000

     Dense  grid:    23477 G-vectors     FFT dimensions: (  50,  50,  54)

     Smooth grid:     8322 G-vectors     FFT dimensions: (  36,  36,  40)

     Dynamical RAM for                 wfc:       0.63 MB

     Dynamical RAM for     wfc (w. buffer):       0.63 MB

     Dynamical RAM for           str. fact:       0.72 MB

     Dynamical RAM for           local pot:       0.00 MB

     Dynamical RAM for          nlocal pot:       1.23 MB

     Dynamical RAM for                qrad:       2.49 MB

     Dynamical RAM for          rho,v,vnew:       4.16 MB

     Dynamical RAM for               rhoin:       1.39 MB

     Dynamical RAM for            rho*nmix:       5.73 MB

     Dynamical RAM for           G-vectors:       1.41 MB

     Dynamical RAM for          h,s,v(r/c):       0.15 MB

     Dynamical RAM for          <psi|beta>:       0.02 MB

     Dynamical RAM for                 psi:       1.27 MB

     Dynamical RAM for                hpsi:       1.27 MB

     Dynamical RAM for                spsi:       1.27 MB

     Dynamical RAM for      wfcinit/wfcrot:       1.67 MB

     Dynamical RAM for           addusdens:      67.71 MB

     Dynamical RAM for          addusforce:      69.33 MB

     Dynamical RAM for         addusstress:      72.00 MB

     Estimated static dynamical RAM per process >      18.26 MB

     Estimated max dynamical RAM per process >      95.99 MB

     Initial potential from superposition of free atoms

     starting charge      65.9968, renormalised to      66.0000
     Starting wfcs are   51 randomized atomic wfcs
     Checking if some PAW data can be deallocated... 

     total cpu time spent up to now is        5.1 secs

     Self-consistent Calculation

     iteration #  1     ecut=    30.00 Ry     beta= 0.70
     Davidson diagonalization with overlap

---- Real-time Memory Report at c_bands before calling an iterative solver
           349 MiB given to the printing process from OS
             0 MiB allocation reported by mallinfo(arena+hblkhd)
        171578 MiB available memory on the node where the printing process lives
------------------
     ethr =  1.00E-02,  avg # of iterations =  3.0

     Threshold (ethr) on eigenvalues was too large:
     Diagonalizing with lowered threshold

     Davidson diagonalization with overlap

---- Real-time Memory Report at c_bands before calling an iterative solver
           499 MiB given to the printing process from OS
             0 MiB allocation reported by mallinfo(arena+hblkhd)
        171448 MiB available memory on the node where the printing process lives
------------------
     ethr =  3.98E-04,  avg # of iterations =  1.0

     total cpu time spent up to now is        5.6 secs

     total energy              =   -1484.33537483 Ry
     estimated scf accuracy    <       0.27346817 Ry

     iteration #  2     ecut=    30.00 Ry     beta= 0.70
     Davidson diagonalization with overlap

---- Real-time Memory Report at c_bands before calling an iterative solver
           508 MiB given to the printing process from OS
             0 MiB allocation reported by mallinfo(arena+hblkhd)
        171440 MiB available memory on the node where the printing process lives
------------------
     ethr =  4.14E-04,  avg # of iterations =  2.0

     total cpu time spent up to now is        6.0 secs

     total energy              =   -1484.37004315 Ry
     estimated scf accuracy    <       0.62220987 Ry

     iteration #  3     ecut=    30.00 Ry     beta= 0.70
     Davidson diagonalization with overlap

---- Real-time Memory Report at c_bands before calling an iterative solver
           521 MiB given to the printing process from OS
             0 MiB allocation reported by mallinfo(arena+hblkhd)
        171427 MiB available memory on the node where the printing process lives
------------------
     ethr =  4.14E-04,  avg # of iterations =  2.0

     total cpu time spent up to now is        6.4 secs

     total energy              =   -1484.43285020 Ry
     estimated scf accuracy    <       0.12506787 Ry

     iteration #  4     ecut=    30.00 Ry     beta= 0.70
     Davidson diagonalization with overlap

---- Real-time Memory Report at c_bands before calling an iterative solver
           524 MiB given to the printing process from OS
             0 MiB allocation reported by mallinfo(arena+hblkhd)
        171422 MiB available memory on the node where the printing process lives
------------------
     ethr =  1.89E-04,  avg # of iterations =  2.0

     total cpu time spent up to now is        6.7 secs

     total energy              =   -1484.43826260 Ry
     estimated scf accuracy    <       0.18133687 Ry

     iteration #  5     ecut=    30.00 Ry     beta= 0.70
     Davidson diagonalization with overlap

---- Real-time Memory Report at c_bands before calling an iterative solver
           524 MiB given to the printing process from OS
             0 MiB allocation reported by mallinfo(arena+hblkhd)
        171422 MiB available memory on the node where the printing process lives
------------------
     ethr =  1.89E-04,  avg # of iterations =  1.0

     total cpu time spent up to now is        7.0 secs

     total energy              =   -1484.45252080 Ry
     estimated scf accuracy    <       0.04684516 Ry

     iteration #  6     ecut=    30.00 Ry     beta= 0.70
     Davidson diagonalization with overlap

---- Real-time Memory Report at c_bands before calling an iterative solver
           524 MiB given to the printing process from OS
             0 MiB allocation reported by mallinfo(arena+hblkhd)
        171422 MiB available memory on the node where the printing process lives
------------------
     ethr =  7.10E-05,  avg # of iterations =  3.0

     total cpu time spent up to now is        7.3 secs

     total energy              =   -1484.44992578 Ry
     estimated scf accuracy    <       0.04036007 Ry

     iteration #  7     ecut=    30.00 Ry     beta= 0.70
     Davidson diagonalization with overlap

---- Real-time Memory Report at c_bands before calling an iterative solver
           524 MiB given to the printing process from OS
             0 MiB allocation reported by mallinfo(arena+hblkhd)
        171422 MiB available memory on the node where the printing process lives
------------------
     ethr =  6.12E-05,  avg # of iterations =  1.0

     total cpu time spent up to now is        7.7 secs

     total energy              =   -1484.45029550 Ry
     estimated scf accuracy    <       0.00712153 Ry

     iteration #  8     ecut=    30.00 Ry     beta= 0.70
     Davidson diagonalization with overlap

---- Real-time Memory Report at c_bands before calling an iterative solver
           527 MiB given to the printing process from OS
             0 MiB allocation reported by mallinfo(arena+hblkhd)
        171419 MiB available memory on the node where the printing process lives
------------------
     ethr =  1.08E-05,  avg # of iterations =  6.0

     total cpu time spent up to now is        8.0 secs

     total energy              =   -1484.45028756 Ry
     estimated scf accuracy    <       0.01842305 Ry

     iteration #  9     ecut=    30.00 Ry     beta= 0.70
     Davidson diagonalization with overlap

---- Real-time Memory Report at c_bands before calling an iterative solver
           527 MiB given to the printing process from OS
             0 MiB allocation reported by mallinfo(arena+hblkhd)
        171418 MiB available memory on the node where the printing process lives
------------------
     ethr =  1.08E-05,  avg # of iterations =  1.0

     total cpu time spent up to now is        8.3 secs

     total energy              =   -1484.45036152 Ry
     estimated scf accuracy    <       0.02645170 Ry

     iteration # 10     ecut=    30.00 Ry     beta= 0.70
     Davidson diagonalization with overlap

---- Real-time Memory Report at c_bands before calling an iterative solver
           527 MiB given to the printing process from OS
             0 MiB allocation reported by mallinfo(arena+hblkhd)
        171418 MiB available memory on the node where the printing process lives
------------------
     ethr =  1.08E-05,  avg # of iterations =  1.0

     total cpu time spent up to now is        8.6 secs

     total energy              =   -1484.45083929 Ry
     estimated scf accuracy    <       0.00623665 Ry

     iteration # 11     ecut=    30.00 Ry     beta= 0.70
     Davidson diagonalization with overlap

---- Real-time Memory Report at c_bands before calling an iterative solver
           527 MiB given to the printing process from OS
             0 MiB allocation reported by mallinfo(arena+hblkhd)
        171419 MiB available memory on the node where the printing process lives
------------------
     ethr =  9.45E-06,  avg # of iterations =  1.0

     total cpu time spent up to now is        8.9 secs

     total energy              =   -1484.45078022 Ry
     estimated scf accuracy    <       0.00324589 Ry

     iteration # 12     ecut=    30.00 Ry     beta= 0.70
     Davidson diagonalization with overlap

---- Real-time Memory Report at c_bands before calling an iterative solver
           527 MiB given to the printing process from OS
             0 MiB allocation reported by mallinfo(arena+hblkhd)
        171418 MiB available memory on the node where the printing process lives
------------------
     ethr =  4.92E-06,  avg # of iterations =  1.0

     total cpu time spent up to now is        9.2 secs

     total energy              =   -1484.45082126 Ry
     estimated scf accuracy    <       0.00010162 Ry

     iteration # 13     ecut=    30.00 Ry     beta= 0.70
     Davidson diagonalization with overlap

---- Real-time Memory Report at c_bands before calling an iterative solver
           527 MiB given to the printing process from OS
             0 MiB allocation reported by mallinfo(arena+hblkhd)
        171419 MiB available memory on the node where the printing process lives
------------------
     ethr =  1.54E-07,  avg # of iterations =  5.0

     total cpu time spent up to now is        9.6 secs

     End of self-consistent calculation

          k = 0.0000 0.0000 0.0000 (  1040 PWs)   bands (ev):

  -118.4658-118.4643-118.3819 -72.5893 -72.5884 -72.5448 -72.5391 -72.5136
   -72.4938 -72.4919 -72.4398 -72.4124  -0.7249   0.4527   0.5414   0.5976
     0.6596   0.6721   0.6938   0.7012   0.7231   0.7551   0.8083   0.8339
     0.9687   0.9729   1.0172   1.1087   5.7486   6.1235   6.8695   7.2266
     7.7770   7.7834   8.3263   8.6436   8.7918   9.6444  10.4470  10.4748

     occupation numbers 
     1.0000   1.0000   1.0000   1.0000   1.0000   1.0000   1.0000   1.0000
     1.0000   1.0000   1.0000   1.0000   1.0000   1.0000   1.0000   1.0000
     1.0000   1.0000   1.0000   1.0000   1.0000   1.0000   1.0000   1.0000
     1.0000   1.0000   1.0000   1.0000   1.0000   1.0000   1.0000   1.0000
     0.6929   0.3071  -0.0000  -0.0000  -0.0000  -0.0000  -0.0000  -0.0000

     the Fermi energy is     7.7802 ev

!    total energy              =   -1484.45083119 Ry
     estimated scf accuracy    <       0.00000031 Ry
     smearing contrib. (-TS)   =      -0.00047490 Ry
     internal energy E=F+TS    =   -1484.45035629 Ry

     The total energy is F=E-TS. E is the sum of the following terms:
     one-electron contribution =   -1463.35554065 Ry
     hartree contribution      =     745.45282937 Ry
     xc contribution           =    -131.20887658 Ry
     ewald contribution        =    -541.47475207 Ry
     one-center paw contrib.   =     -93.86401636 Ry
      -> PAW hartree energy AE =       2.10152143 Ry
      -> PAW hartree energy PS =      -2.09602951 Ry
      -> PAW xc energy AE      =     -97.67169701 Ry
      -> PAW xc energy PS      =       3.80218874 Ry
      -> total E_H with PAW    =     745.45832128 Ry
      -> total E_XC with PAW   =    -225.07838485 Ry

     convergence has been achieved in  13 iterations

     Forces acting on atoms (cartesian axes, Ry/au):

     atom    1 type  1   force =     0.00820752   -0.00922873    0.00265648
     atom    2 type  1   force =     0.00277706   -0.01204223   -0.00264549
     atom    3 type  1   force =    -0.01455796    0.02807570   -0.00000195
     atom    4 type  2   force =    -0.01203045    0.02337538   -0.00007542
     atom    5 type  2   force =     0.00663839   -0.01568191    0.02759675
     atom    6 type  2   force =     0.00896544   -0.01449820   -0.02753038
     The non-local contrib.  to forces
     atom    1 type  1   force =    -0.01370009   -0.06665494    0.00247098
     atom    2 type  1   force =     0.06232391   -0.02728168   -0.00248572
     atom    3 type  1   force =    -0.01318401    0.02544916   -0.00000860
     atom    4 type  2   force =     0.06741744   -0.13011502   -0.00010002
     atom    5 type  2   force =    -0.25189195   -0.12387610   -0.13394542
     atom    6 type  2   force =     0.24651407    0.13423758    0.13397417
     The ionic contribution  to forces
     atom    1 type  1   force =     0.90809171    0.78885866    0.37326657
     atom    2 type  1   force =    -1.16828026   -0.28644333   -0.37326657
     atom    3 type  1   force =     0.37315602   -0.72055172   -0.00000000
     atom    4 type  2   force =     1.68862912   -3.26068601    0.00000000
     atom    5 type  2   force =    11.83709064    8.33605070    0.54977946
     atom    6 type  2   force =   -13.63868724   -4.85722829   -0.54977946
     The local contribution  to forces
     atom    1 type  1   force =    -0.88702358   -0.73757133   -0.37251845
     atom    2 type  1   force =     1.11425590    0.29883959    0.37253770
     atom    3 type  1   force =    -0.37545824    0.72499307    0.00000431
     atom    4 type  2   force =    -1.76849178    3.41455440    0.00016303
     atom    5 type  2   force =   -11.57830138   -8.22779638   -0.38909957
     atom    6 type  2   force =    13.40092312    4.70841432    0.38912652
     The core correction contribution to forces
     atom    1 type  1   force =     0.00083871    0.00604512   -0.00055325
     atom    2 type  1   force =    -0.00541922    0.00280420    0.00055495
     atom    3 type  1   force =     0.00097431   -0.00188048    0.00000084
     atom    4 type  2   force =     0.00000000    0.00000000    0.00000000
     atom    5 type  2   force =     0.00000000    0.00000000    0.00000000
     atom    6 type  2   force =     0.00000000    0.00000000    0.00000000
     The Hubbard contrib.    to forces
     atom    1 type  1   force =     0.00000000    0.00000000    0.00000000
     atom    2 type  1   force =     0.00000000    0.00000000    0.00000000
     atom    3 type  1   force =     0.00000000    0.00000000    0.00000000
     atom    4 type  2   force =     0.00000000    0.00000000    0.00000000
     atom    5 type  2   force =     0.00000000    0.00000000    0.00000000
     atom    6 type  2   force =     0.00000000    0.00000000    0.00000000
     The SCF correction term to forces
     atom    1 type  1   force =     0.00004547    0.00003335   -0.00001200
     atom    2 type  1   force =    -0.00005856   -0.00002143    0.00001152
     atom    3 type  1   force =    -0.00000133    0.00000525   -0.00000114
     atom    4 type  2   force =     0.00045948   -0.00043840   -0.00014107
     atom    5 type  2   force =    -0.00021422   -0.00012054    0.00085965
     atom    6 type  2   force =     0.00026020    0.00001778   -0.00085424

     Total force =     0.064115     Total SCF correction =     0.001424


     Computing stress (Cartesian axis) and pressure

          total   stress  (Ry/bohr**3)                   (kbar)     P=     -191.53
  -0.00073808   0.00148659   0.00089396         -108.58      218.68      131.51
   0.00148659  -0.00283847   0.00046294          218.68     -417.55       68.10
   0.00089396   0.00046294  -0.00032949          131.51       68.10      -48.47

     kinetic stress (kbar)  16395.86    230.96    156.17
                              230.96  16069.51     80.86
                              156.17     80.86  16526.97

     local   stress (kbar)  -3688.96  17296.78  19572.63
                            17296.78 -28130.90  10136.29
                            19572.63  10136.29 -28617.64

     nonloc. stress (kbar)  -1613.09    -16.52     -1.70
                              -16.52  -1589.72     -0.89
                               -1.70     -0.89  -1577.65

     hartree stress (kbar)  41060.63  -8166.76  -9435.21
                            -8166.76  52601.03  -4886.35
                            -9435.21  -4886.35  52991.88

     exc-cor stress (kbar)  -7730.10     -0.54      0.97
                               -0.54  -7729.35      0.50
                                0.97      0.50  -7727.63

     corecor stress (kbar)   -429.99      0.31      0.31
                                0.31   -430.43      0.16
                                0.31      0.16   -430.26

     ewald   stress (kbar) -44102.93  -9125.55 -10161.65
                            -9125.55 -31207.70  -5262.47
                           -10161.65  -5262.47 -31214.15

     hubbard stress (kbar)      0.00      0.00      0.00
                                0.00      0.00      0.00
                                0.00      0.00      0.00

     DFT-D   stress (kbar)      0.00      0.00      0.00
                                0.00      0.00      0.00
                                0.00      0.00      0.00

     XDM     stress (kbar)      0.00      0.00      0.00
                                0.00      0.00      0.00
                                0.00      0.00      0.00

     dft-nl  stress (kbar)      0.00      0.00      0.00
                                0.00      0.00      0.00
                                0.00      0.00      0.00

     TS-vdW  stress (kbar)      0.00      0.00      0.00
                                0.00      0.00      0.00
                                0.00      0.00      0.00


                                0.00      0.00      0.00
                                0.00      0.00      0.00


                                0.00      0.00      0.00


     Writing all to output data dir new_calculations/myprefix.save/
 
     init_run     :    133.96s CPU      4.90s WALL (       1 calls)
     electrons    :    135.65s CPU      4.54s WALL (       1 calls)
     forces       :      1.98s CPU      0.06s WALL (       1 calls)
     stress       :      4.98s CPU      0.17s WALL (       1 calls)

     Called by init_run:
     wfcinit      :     18.69s CPU      0.61s WALL (       1 calls)
     wfcinit:atom :      0.03s CPU      0.00s WALL (       1 calls)
     wfcinit:wfcr :     18.56s CPU      0.60s WALL (       1 calls)
     potinit      :     44.64s CPU      1.51s WALL (       1 calls)
     hinit0       :     68.86s CPU      2.72s WALL (       1 calls)

     Called by electrons:
     c_bands      :     77.35s CPU      2.46s WALL (      14 calls)
     sum_band     :     26.14s CPU      1.02s WALL (      14 calls)
     v_of_rho     :      5.78s CPU      0.19s WALL (      14 calls)
     v_h          :      0.49s CPU      0.02s WALL (      14 calls)
     v_xc         :      5.85s CPU      0.20s WALL (      16 calls)
     newd         :     11.82s CPU      0.39s WALL (      14 calls)
     PAW_pot      :     13.64s CPU      0.46s WALL (      14 calls)
     mix_rho      :      1.34s CPU      0.04s WALL (      14 calls)

     Called by c_bands:
     init_us_2    :      0.22s CPU      0.01s WALL (      29 calls)
     init_us_2:cp :      0.18s CPU      0.01s WALL (      29 calls)
     regterg      :     76.47s CPU      2.43s WALL (      14 calls)

     Called by sum_band:
     sum_band:wei :      0.03s CPU      0.00s WALL (      14 calls)
     sum_band:loo :     15.54s CPU      0.49s WALL (      14 calls)
     sum_band:buf :      0.01s CPU      0.00s WALL (      14 calls)
     sum_band:ini :      0.12s CPU      0.00s WALL (      14 calls)
     sum_band:cal :      0.07s CPU      0.00s WALL (      14 calls)
     sum_band:bec :      0.03s CPU      0.00s WALL (      14 calls)
     addusdens    :      9.63s CPU      0.49s WALL (      14 calls)
     addusd:skk   :      0.09s CPU      0.00s WALL (      28 calls)
     addusd:dgemm :      0.70s CPU      0.20s WALL (      28 calls)
     addusd:qvan2 :      8.34s CPU      0.27s WALL (      28 calls)

     Called by *egterg:
     rdiaghg      :      2.31s CPU      0.08s WALL (      43 calls)
     regterg:over :      0.10s CPU      0.00s WALL (      30 calls)
     regterg:upda :      0.18s CPU      0.01s WALL (      30 calls)
     regterg:last :      0.29s CPU      0.01s WALL (      21 calls)
     h_psi        :     91.01s CPU      2.89s WALL (      45 calls)
     s_psi        :      0.08s CPU      0.00s WALL (      45 calls)
     g_psi        :      0.03s CPU      0.00s WALL (      30 calls)

     Called by h_psi:
     h_psi:calbec :      0.23s CPU      0.01s WALL (      45 calls)
     vloc_psi     :     90.44s CPU      2.87s WALL (      45 calls)
     add_vuspsi   :      0.11s CPU      0.00s WALL (      45 calls)

     General routines
     calbec       :      0.23s CPU      0.01s WALL (      64 calls)
     fft          :     55.56s CPU      1.87s WALL (     173 calls)
     ffts         :     42.41s CPU      1.43s WALL (      28 calls)
     fftw         :     97.71s CPU      3.10s WALL (    1552 calls)
     interpolate  :     42.86s CPU      1.45s WALL (      14 calls)
 
     Parallel routines

     PAW routines
     PAW_pot      :     13.64s CPU      0.46s WALL (      14 calls)
 
     PWSCF        :   4m45.03s CPU     10.17s WALL

 
   This run was terminated on:  10: 6:20  20May2023            

=------------------------------------------------------------------------------=
   JOB DONE.
=------------------------------------------------------------------------------=
