
     Program PWSCF v.7.0 starts on 20May2023 at 23:14:21 

     This program is part of the open-source Quantum ESPRESSO suite
     for quantum simulation of materials; please cite
         "P. Giannozzi et al., J. Phys.:Condens. Matter 21 395502 (2009);
         "P. Giannozzi et al., J. Phys.:Condens. Matter 29 465901 (2017);
         "P. Giannozzi et al., J. Chem. Phys. 152 154105 (2020);
          URL http://www.quantum-espresso.org", 
     in publications or presentations arising from this work. More details at
     http://www.quantum-espresso.org/quote

     Parallel version (MPI & OpenMP), running on      32 processor cores
     Number of MPI processes:                 1
     Threads/MPI process:                    32

     MPI processes distributed on     1 nodes
     159460 MiB available memory on the printing compute node when the environment starts
 
     Reading input from espresso_25167.pwi
Warning: card &CELL ignored
Warning: card / ignored

     Current dimensions of program PWSCF are:
     Max number of different atomic species (ntypx) = 10
     Max number of k-points (npk) =  40000
     Max angular momentum in pseudopotentials (lmaxx) =  4

     gamma-point specific algorithms are used
     Message from routine setup:
     using ibrav=0 with symmetry is DISCOURAGED, use correct ibrav instead

     Subspace diagonalization in iterative solution of the eigenvalue problem:
     a serial algorithm will be used

 
     G-vector sticks info
     --------------------
     sticks:   dense  smooth     PW     G-vecs:    dense   smooth      PW
     Sum        4185    2097    527                99513    35239    4413
 
     Using Slab Decomposition
 


     bravais-lattice index     =            0
     lattice parameter (alat)  =      26.5039  a.u.
     unit-cell volume          =    1582.7488 (a.u.)^3
     number of atoms/cell      =            7
     number of atomic types    =            3
     number of electrons       =        78.00
     number of Kohn-Sham states=           47
     kinetic-energy cutoff     =      30.0000  Ry
     charge density cutoff     =     240.0000  Ry
     scf convergence threshold =      1.0E-06
     mixing beta               =       0.7000
     number of iterations used =            8  plain     mixing
     Exchange-correlation= SLA  PW   PBE  PBE
                           (   1   4   3   4   0   0   0)

     celldm(1)=  26.503919  celldm(2)=   0.000000  celldm(3)=   0.000000
     celldm(4)=   0.000000  celldm(5)=   0.000000  celldm(6)=   0.000000

     crystal axes: (cart. coord. in units of alat)
               a(1) = (   1.000000   0.000000   0.000000 )  
               a(2) = (   0.950080   0.312005   0.000000 )  
               a(3) = (   0.950080   0.152009   0.272471 )  

     reciprocal axes: (cart. coord. in units 2 pi/alat)
               b(1) = (  1.000000 -3.045081 -1.788083 )  
               b(2) = (  0.000000  3.205077 -1.788083 )  
               b(3) = (  0.000000  0.000000  3.670117 )  


     PseudoPot. # 1 for Bi read from file:
     /home/pragov/projects/rrg-bengioy-ad/pragov/crystal_structure_design/SSSP/Bi_pbe_v1.uspp.F.UPF
     MD5 check sum: cceb9f28ec65b6d7ff33140f5b0b1758
     Pseudo is Ultrasoft + core correction, Zval = 15.0
     Generated by new atomic code, or converted to UPF format
     Using radial grid of  899 points,  6 beta functions with: 
                l(1) =   0
                l(2) =   0
                l(3) =   1
                l(4) =   1
                l(5) =   2
                l(6) =   2
     Q(r) pseudized with  6 coefficients,  rinner =    1.000   1.000   1.000
                                                       1.000   1.000

     PseudoPot. # 2 for Sb read from file:
     /home/pragov/projects/rrg-bengioy-ad/pragov/crystal_structure_design/SSSP/sb_pbe_v1.4.uspp.F.UPF
     MD5 check sum: 9bc50dfb53373b713f5709b9110fe27f
     Pseudo is Ultrasoft + core correction, Zval = 15.0
     Generated by new atomic code, or converted to UPF format
     Using radial grid of  891 points,  6 beta functions with: 
                l(1) =   0
                l(2) =   0
                l(3) =   1
                l(4) =   1
                l(5) =   2
                l(6) =   2
     Q(r) pseudized with  8 coefficients,  rinner =    1.350   1.350   1.350
                                                       1.350   1.350

     PseudoPot. # 3 for Te read from file:
     /home/pragov/projects/rrg-bengioy-ad/pragov/crystal_structure_design/SSSP/Te_pbe_v1.uspp.F.UPF
     MD5 check sum: c319670d6894cc26e93307826a071b75
     Pseudo is Ultrasoft + core correction, Zval =  6.0
     Generated by new atomic code, or converted to UPF format
     Using radial grid of  891 points,  5 beta functions with: 
                l(1) =   0
                l(2) =   0
                l(3) =   1
                l(4) =   1
                l(5) =   2
     Q(r) pseudized with  6 coefficients,  rinner =    1.800   1.800   1.800
                                                       1.800   1.800

     atomic species   valence    mass     pseudopotential
        Bi            15.00   208.98040     Bi( 1.00)
        Sb            15.00   121.76000     Sb( 1.00)
        Te             6.00   127.60000     Te( 1.00)

      2 Sym. Ops., with inversion, found


                                    s                        frac. trans.

      isym =  1     identity                                     

 cryst.   s( 1) = (     1          0          0      )
                  (     0          1          0      )
                  (     0          0          1      )

 cart.    s( 1) = (  1.0000000  0.0000000 -0.0000000 )
                  (  0.0000000  1.0000000 -0.0000000 )
                  (  0.0000000  0.0000000  1.0000000 )


      isym =  2     inversion                                    

 cryst.   s( 2) = (    -1          0          0      )
                  (     0         -1          0      )
                  (     0          0         -1      )

 cart.    s( 2) = ( -1.0000000 -0.0000000  0.0000000 )
                  (  0.0000000 -1.0000000  0.0000000 )
                  (  0.0000000  0.0000000 -1.0000000 )


   Cartesian axes

     site n.     atom                  positions (alat units)
         1           Bi  tau(   1) = (   2.4768592   0.3962875   0.2327016  )
         2           Bi  tau(   2) = (   0.4233017   0.0677266   0.0397693  )
         3           Sb  tau(   3) = (   2.0695113   0.3311135   0.1944312  )
         4           Sb  tau(   4) = (   0.8306496   0.1329006   0.0780398  )
         5           Te  tau(   5) = (   1.6797790   0.2687579   0.1578157  )
         6           Te  tau(   6) = (   1.2203819   0.1952562   0.1146552  )
         7           Te  tau(   7) = (   0.0000000   0.0000000   0.0000000  )

   Crystallographic axes

     site n.     atom                  positions (cryst. coord.)
         1           Bi  tau(   1) = (  0.8540420  0.8540420  0.8540420  )
         2           Bi  tau(   2) = (  0.1459580  0.1459580  0.1459580  )
         3           Sb  tau(   3) = (  0.7135850  0.7135850  0.7135850  )
         4           Sb  tau(   4) = (  0.2864150  0.2864150  0.2864150  )
         5           Te  tau(   5) = (  0.5792020  0.5792020  0.5792020  )
         6           Te  tau(   6) = (  0.4207980  0.4207980  0.4207980  )
         7           Te  tau(   7) = (  0.0000000  0.0000000  0.0000000  )

     number of k points=     1  Methfessel-Paxton smearing, width (Ry)=  0.0010
                       cart. coord. in units 2pi/alat
        k(    1) = (   0.0000000   0.0000000   0.0000000), wk =   2.0000000

                       cryst. coord.
        k(    1) = (   0.0000000   0.0000000   0.0000000), wk =   2.0000000

     Dense  grid:    49757 G-vectors     FFT dimensions: ( 135, 135, 135)

     Smooth grid:    17620 G-vectors     FFT dimensions: (  96,  96,  96)

     Dynamical RAM for                 wfc:       1.57 MB

     Dynamical RAM for     wfc (w. buffer):       1.57 MB

     Dynamical RAM for           str. fact:       2.28 MB

     Dynamical RAM for           local pot:       0.00 MB

     Dynamical RAM for          nlocal pot:       3.72 MB

     Dynamical RAM for                qrad:       3.73 MB

     Dynamical RAM for          rho,v,vnew:      58.59 MB

     Dynamical RAM for               rhoin:      19.53 MB

     Dynamical RAM for            rho*nmix:      12.15 MB

     Dynamical RAM for           G-vectors:       2.98 MB

     Dynamical RAM for          h,s,v(r/c):       0.20 MB

     Dynamical RAM for          <psi|beta>:       0.04 MB

     Dynamical RAM for                 psi:       3.15 MB

     Dynamical RAM for                hpsi:       3.15 MB

     Dynamical RAM for                spsi:       3.15 MB

     Dynamical RAM for      wfcinit/wfcrot:       3.27 MB

     Dynamical RAM for           addusdens:     143.49 MB

     Dynamical RAM for          addusforce:     146.92 MB

     Dynamical RAM for         addusstress:     152.61 MB

     Estimated static dynamical RAM per process >     189.30 MB

     Estimated max dynamical RAM per process >     354.05 MB

     Check: negative core charge=   -0.000002

     Initial potential from superposition of free atoms

     starting charge      73.9992, renormalised to      78.0000

     negative rho (up, down):  8.906E-02 0.000E+00
     Starting wfcs are   48 randomized atomic wfcs

     total cpu time spent up to now is       21.4 secs

     Self-consistent Calculation

     iteration #  1     ecut=    30.00 Ry     beta= 0.70
     Davidson diagonalization with overlap

---- Real-time Memory Report at c_bands before calling an iterative solver
           710 MiB given to the printing process from OS
             0 MiB allocation reported by mallinfo(arena+hblkhd)
        159206 MiB available memory on the node where the printing process lives
------------------
     ethr =  1.00E-02,  avg # of iterations =  2.0

     negative rho (up, down):  8.781E-02 0.000E+00

     total cpu time spent up to now is       27.5 secs

     total energy              =    -811.29291357 Ry
     estimated scf accuracy    <       9.54540803 Ry

     iteration #  2     ecut=    30.00 Ry     beta= 0.70
     Davidson diagonalization with overlap

---- Real-time Memory Report at c_bands before calling an iterative solver
           970 MiB given to the printing process from OS
             0 MiB allocation reported by mallinfo(arena+hblkhd)
        159018 MiB available memory on the node where the printing process lives
------------------
     ethr =  1.00E-02,  avg # of iterations = 10.0

     negative rho (up, down):  8.344E-02 0.000E+00

     total cpu time spent up to now is       35.7 secs

     total energy              =    -767.39597856 Ry
     estimated scf accuracy    <     845.40223564 Ry

     iteration #  3     ecut=    30.00 Ry     beta= 0.70
     Davidson diagonalization with overlap

---- Real-time Memory Report at c_bands before calling an iterative solver
           983 MiB given to the printing process from OS
             0 MiB allocation reported by mallinfo(arena+hblkhd)
        159014 MiB available memory on the node where the printing process lives
------------------
     ethr =  1.00E-02,  avg # of iterations =  7.0

     negative rho (up, down):  8.468E-02 0.000E+00

     total cpu time spent up to now is       38.5 secs

     total energy              =    -816.17954499 Ry
     estimated scf accuracy    <      15.51143847 Ry

     iteration #  4     ecut=    30.00 Ry     beta= 0.70
     Davidson diagonalization with overlap

---- Real-time Memory Report at c_bands before calling an iterative solver
           992 MiB given to the printing process from OS
             0 MiB allocation reported by mallinfo(arena+hblkhd)
        159015 MiB available memory on the node where the printing process lives
------------------
     ethr =  1.00E-02,  avg # of iterations =  6.0

     negative rho (up, down):  8.570E-02 0.000E+00

     total cpu time spent up to now is       41.0 secs

     total energy              =    -817.11121311 Ry
     estimated scf accuracy    <      19.59600853 Ry

     iteration #  5     ecut=    30.00 Ry     beta= 0.70
     Davidson diagonalization with overlap

---- Real-time Memory Report at c_bands before calling an iterative solver
           992 MiB given to the printing process from OS
             0 MiB allocation reported by mallinfo(arena+hblkhd)
        159016 MiB available memory on the node where the printing process lives
------------------
     ethr =  1.00E-02,  avg # of iterations =  2.0

     negative rho (up, down):  8.636E-02 0.000E+00

     total cpu time spent up to now is       46.7 secs

     total energy              =    -817.51580614 Ry
     estimated scf accuracy    <      13.97558359 Ry

     iteration #  6     ecut=    30.00 Ry     beta= 0.70
     Davidson diagonalization with overlap

---- Real-time Memory Report at c_bands before calling an iterative solver
           992 MiB given to the printing process from OS
             0 MiB allocation reported by mallinfo(arena+hblkhd)
        158997 MiB available memory on the node where the printing process lives
------------------
     ethr =  1.00E-02,  avg # of iterations =  1.0

     negative rho (up, down):  8.721E-02 0.000E+00

     total cpu time spent up to now is       51.8 secs

     total energy              =    -818.10708613 Ry
     estimated scf accuracy    <       0.58240671 Ry

     iteration #  7     ecut=    30.00 Ry     beta= 0.70
     Davidson diagonalization with overlap

---- Real-time Memory Report at c_bands before calling an iterative solver
           993 MiB given to the printing process from OS
             0 MiB allocation reported by mallinfo(arena+hblkhd)
        159037 MiB available memory on the node where the printing process lives
------------------
     ethr =  7.47E-04,  avg # of iterations =  2.0

     negative rho (up, down):  8.756E-02 0.000E+00

     total cpu time spent up to now is       57.4 secs

     total energy              =    -818.11899239 Ry
     estimated scf accuracy    <       0.26367697 Ry

     iteration #  8     ecut=    30.00 Ry     beta= 0.70
     Davidson diagonalization with overlap

---- Real-time Memory Report at c_bands before calling an iterative solver
           993 MiB given to the printing process from OS
             0 MiB allocation reported by mallinfo(arena+hblkhd)
        159010 MiB available memory on the node where the printing process lives
------------------
     ethr =  3.38E-04,  avg # of iterations =  2.0

     negative rho (up, down):  8.864E-02 0.000E+00

     total cpu time spent up to now is       60.5 secs

     total energy              =    -818.11422157 Ry
     estimated scf accuracy    <       0.11917281 Ry

     iteration #  9     ecut=    30.00 Ry     beta= 0.70
     Davidson diagonalization with overlap

---- Real-time Memory Report at c_bands before calling an iterative solver
           994 MiB given to the printing process from OS
             0 MiB allocation reported by mallinfo(arena+hblkhd)
        158984 MiB available memory on the node where the printing process lives
------------------
     ethr =  1.53E-04,  avg # of iterations =  6.0

     negative rho (up, down):  8.898E-02 0.000E+00

     total cpu time spent up to now is       62.6 secs

     total energy              =    -818.12230963 Ry
     estimated scf accuracy    <       0.01364441 Ry

     iteration # 10     ecut=    30.00 Ry     beta= 0.70
     Davidson diagonalization with overlap

---- Real-time Memory Report at c_bands before calling an iterative solver
           996 MiB given to the printing process from OS
             0 MiB allocation reported by mallinfo(arena+hblkhd)
        158984 MiB available memory on the node where the printing process lives
------------------
     ethr =  1.75E-05,  avg # of iterations =  3.0

     negative rho (up, down):  8.890E-02 0.000E+00

     total cpu time spent up to now is       64.5 secs

     total energy              =    -818.12329183 Ry
     estimated scf accuracy    <       0.00533149 Ry

     iteration # 11     ecut=    30.00 Ry     beta= 0.70
     Davidson diagonalization with overlap

---- Real-time Memory Report at c_bands before calling an iterative solver
           996 MiB given to the printing process from OS
             0 MiB allocation reported by mallinfo(arena+hblkhd)
        158987 MiB available memory on the node where the printing process lives
------------------
     ethr =  6.84E-06,  avg # of iterations =  1.0

     negative rho (up, down):  8.889E-02 0.000E+00

     total cpu time spent up to now is       66.4 secs

     total energy              =    -818.12334417 Ry
     estimated scf accuracy    <       0.00233640 Ry

     iteration # 12     ecut=    30.00 Ry     beta= 0.70
     Davidson diagonalization with overlap

---- Real-time Memory Report at c_bands before calling an iterative solver
           996 MiB given to the printing process from OS
             0 MiB allocation reported by mallinfo(arena+hblkhd)
        158985 MiB available memory on the node where the printing process lives
------------------
     ethr =  3.00E-06,  avg # of iterations =  2.0

     negative rho (up, down):  8.887E-02 0.000E+00

     total cpu time spent up to now is       70.7 secs

     total energy              =    -818.12340263 Ry
     estimated scf accuracy    <       0.00257864 Ry

     iteration # 13     ecut=    30.00 Ry     beta= 0.70
     Davidson diagonalization with overlap

---- Real-time Memory Report at c_bands before calling an iterative solver
           998 MiB given to the printing process from OS
             0 MiB allocation reported by mallinfo(arena+hblkhd)
        159015 MiB available memory on the node where the printing process lives
------------------
     ethr =  3.00E-06,  avg # of iterations =  1.0

     negative rho (up, down):  8.893E-02 0.000E+00

     total cpu time spent up to now is       75.6 secs

     total energy              =    -818.12349745 Ry
     estimated scf accuracy    <       0.00008949 Ry

     iteration # 14     ecut=    30.00 Ry     beta= 0.70
     Davidson diagonalization with overlap

---- Real-time Memory Report at c_bands before calling an iterative solver
           998 MiB given to the printing process from OS
             0 MiB allocation reported by mallinfo(arena+hblkhd)
        159017 MiB available memory on the node where the printing process lives
------------------
     ethr =  1.15E-07,  avg # of iterations =  4.0

     negative rho (up, down):  8.895E-02 0.000E+00

     total cpu time spent up to now is       81.4 secs

     total energy              =    -818.12351375 Ry
     estimated scf accuracy    <       0.00003190 Ry

     iteration # 15     ecut=    30.00 Ry     beta= 0.70
     Davidson diagonalization with overlap

---- Real-time Memory Report at c_bands before calling an iterative solver
           998 MiB given to the printing process from OS
             0 MiB allocation reported by mallinfo(arena+hblkhd)
        158999 MiB available memory on the node where the printing process lives
------------------
     ethr =  4.09E-08,  avg # of iterations =  2.0

     negative rho (up, down):  8.896E-02 0.000E+00

     total cpu time spent up to now is       87.6 secs

     total energy              =    -818.12350439 Ry
     estimated scf accuracy    <       0.00036475 Ry

     iteration # 16     ecut=    30.00 Ry     beta= 0.70
     Davidson diagonalization with overlap

---- Real-time Memory Report at c_bands before calling an iterative solver
           998 MiB given to the printing process from OS
             0 MiB allocation reported by mallinfo(arena+hblkhd)
        159015 MiB available memory on the node where the printing process lives
------------------
     ethr =  4.09E-08,  avg # of iterations =  2.0

     negative rho (up, down):  8.900E-02 0.000E+00

     total cpu time spent up to now is       90.7 secs

     total energy              =    -818.12352176 Ry
     estimated scf accuracy    <       0.00000295 Ry

     iteration # 17     ecut=    30.00 Ry     beta= 0.70
     Davidson diagonalization with overlap

---- Real-time Memory Report at c_bands before calling an iterative solver
           998 MiB given to the printing process from OS
             0 MiB allocation reported by mallinfo(arena+hblkhd)
        159014 MiB available memory on the node where the printing process lives
------------------
     ethr =  3.78E-09,  avg # of iterations =  2.0

     negative rho (up, down):  8.903E-02 0.000E+00

     total cpu time spent up to now is       96.3 secs

     End of self-consistent calculation

          k = 0.0000 0.0000 0.0000 (  2207 PWs)   bands (ev):

   -20.6674 -20.6674 -20.6642 -20.6642 -20.5764 -20.5764 -20.5648 -20.5648
   -20.5563 -20.5520 -14.5174 -14.5174 -14.4453 -14.4232 -14.4232 -14.2976
   -14.2634 -14.2634 -14.1433 -14.1433  -4.6851  -3.9278  -3.7025  -2.4172
    -1.0729   0.5766   1.5118   6.2336   6.2684   6.4773   6.4773   6.5849
     6.5849   7.1633   7.1633   7.3367   7.4350   7.4350   8.1582   8.9894
     8.9895   9.3193   9.4262   9.4558   9.4558  10.5303  10.6835

     occupation numbers 
     1.0000   1.0000   1.0000   1.0000   1.0000   1.0000   1.0000   1.0000
     1.0000   1.0000   1.0000   1.0000   1.0000   1.0000   1.0000   1.0000
     1.0000   1.0000   1.0000   1.0000   1.0000   1.0000   1.0000   1.0000
     1.0000   1.0000   1.0000   1.0000   1.0000   1.0000   1.0000   1.0000
     1.0000   1.0000   1.0000   1.0000   1.0000   1.0000   1.0000  -0.0000
    -0.0000  -0.0000  -0.0000  -0.0000  -0.0000  -0.0000  -0.0000

     the Fermi energy is     8.8431 ev

!    total energy              =    -818.12352193 Ry
     estimated scf accuracy    <       0.00000022 Ry
     smearing contrib. (-TS)   =       0.00000000 Ry
     internal energy E=F+TS    =    -818.12352193 Ry

     The total energy is F=E-TS. E is the sum of the following terms:
     one-electron contribution =    -331.00163447 Ry
     hartree contribution      =     208.37733312 Ry
     xc contribution           =    -261.12815996 Ry
     ewald contribution        =    -434.37106063 Ry

     convergence has been achieved in  17 iterations

     negative rho (up, down):  8.903E-02 0.000E+00

     Forces acting on atoms (cartesian axes, Ry/au):

     atom    1 type  1   force =     0.01533315    0.00246180    0.00143050
     atom    2 type  1   force =    -0.01533315   -0.00246180   -0.00143050
     atom    3 type  2   force =     0.02376248    0.00379970    0.00227095
     atom    4 type  2   force =    -0.02376248   -0.00379970   -0.00227095
     atom    5 type  3   force =     0.04220588    0.00675043    0.00396168
     atom    6 type  3   force =    -0.04220588   -0.00675043   -0.00396168
     atom    7 type  3   force =     0.00000000    0.00000000    0.00000000
     The non-local contrib.  to forces
     atom    1 type  1   force =     0.11282698    0.01807804    0.01059973
     atom    2 type  1   force =    -0.11282698   -0.01807804   -0.01059973
     atom    3 type  2   force =    -0.13668826   -0.02187026   -0.01283130
     atom    4 type  2   force =     0.13668826    0.02187026    0.01283130
     atom    5 type  3   force =     0.15201278    0.02432544    0.01428377
     atom    6 type  3   force =    -0.15201278   -0.02432544   -0.01428377
     atom    7 type  3   force =     0.00000000    0.00000000    0.00000000
     The ionic contribution  to forces
     atom    1 type  1   force =    10.48985373    1.67833433    0.98552366
     atom    2 type  1   force =   -10.48985373   -1.67833433   -0.98552366
     atom    3 type  2   force =    -2.10066110   -0.33609731   -0.19735755
     atom    4 type  2   force =     2.10066110    0.33609731    0.19735755
     atom    5 type  3   force =     0.58237858    0.09317823    0.05471495
     atom    6 type  3   force =    -0.58237858   -0.09317823   -0.05471495
     atom    7 type  3   force =     0.00000000   -0.00000000    0.00000000
     The local contribution  to forces
     atom    1 type  1   force =   -10.56835443   -1.69092057   -0.99293152
     atom    2 type  1   force =    10.56615448    1.69056241    0.99266058
     atom    3 type  2   force =     2.26126490    0.36179070    0.21240799
     atom    4 type  2   force =    -2.25867648   -0.36138138   -0.21221499
     atom    5 type  3   force =    -0.70626694   -0.11300179   -0.06636236
     atom    6 type  3   force =     0.70682727    0.11310542    0.06639705
     atom    7 type  3   force =     0.00015560    0.00001206    0.00001686
     The core correction contribution to forces
     atom    1 type  1   force =    -0.01987431   -0.00317884   -0.00186834
     atom    2 type  1   force =     0.01987348    0.00317890    0.00186718
     atom    3 type  2   force =     0.00069079    0.00011052    0.00006417
     atom    4 type  2   force =    -0.00065485   -0.00010489   -0.00006094
     atom    5 type  3   force =     0.01429615    0.00228699    0.00134458
     atom    6 type  3   force =    -0.01431849   -0.00229276   -0.00134362
     atom    7 type  3   force =    -0.00001647   -0.00000119   -0.00000110
     The Hubbard contrib.    to forces
     atom    1 type  1   force =     0.00000000    0.00000000    0.00000000
     atom    2 type  1   force =     0.00000000    0.00000000    0.00000000
     atom    3 type  2   force =     0.00000000    0.00000000    0.00000000
     atom    4 type  2   force =     0.00000000    0.00000000    0.00000000
     atom    5 type  3   force =     0.00000000    0.00000000    0.00000000
     atom    6 type  3   force =     0.00000000    0.00000000    0.00000000
     atom    7 type  3   force =     0.00000000    0.00000000    0.00000000
     The SCF correction term to forces
     atom    1 type  1   force =     0.00089804    0.00014165    0.00009469
     atom    2 type  1   force =     0.00133644    0.00020206    0.00015284
     atom    3 type  2   force =    -0.00098972   -0.00015411   -0.00002455
     atom    4 type  2   force =    -0.00192637   -0.00030117   -0.00019607
     atom    5 type  3   force =    -0.00009038   -0.00000890   -0.00002086
     atom    6 type  3   force =    -0.00019900   -0.00002989   -0.00001799
     atom    7 type  3   force =     0.00000761   -0.00000134   -0.00000552

     Total force =     0.073076     Total SCF correction =     0.002753


     Computing stress (Cartesian axis) and pressure


     negative rho (up, down):  8.903E-02 0.000E+00
          total   stress  (Ry/bohr**3)                   (kbar)     P=      203.96
  -0.00049748  -0.00046007  -0.00027014          -73.18      -67.68      -39.74
  -0.00046007   0.00230438  -0.00004321          -67.68      338.99       -6.36
  -0.00027014  -0.00004321   0.00235263          -39.74       -6.36      346.08

     kinetic stress (kbar)   6992.45    -61.82    -36.30
                              -61.82   7368.97     -5.81
                              -36.30     -5.81   7375.45

     local   stress (kbar)   4826.26    836.36    491.13
                              836.36   -267.35     78.58
                              491.13     78.58   -355.00

     nonloc. stress (kbar)   2570.84      8.57      5.03
                                8.57   2518.64      0.80
                                5.03      0.80   2517.73

     hartree stress (kbar)   4862.55   -389.05   -228.46
                             -389.05   7231.92    -36.55
                             -228.46    -36.55   7272.70

     exc-cor stress (kbar)  12246.04      0.25      0.15
                                0.25  12244.49      0.02
                                0.15      0.02  12244.47

     corecor stress (kbar) -16216.80      1.32      0.78
                                1.32 -16224.85      0.12
                                0.78      0.12 -16224.99

     ewald   stress (kbar) -15354.52   -463.32   -272.06
                             -463.32 -12532.85    -43.53
                             -272.06    -43.53 -12484.28

     hubbard stress (kbar)      0.00      0.00      0.00
                                0.00      0.00      0.00
                                0.00      0.00      0.00

     DFT-D   stress (kbar)      0.00      0.00      0.00
                                0.00      0.00      0.00
                                0.00      0.00      0.00

     XDM     stress (kbar)      0.00      0.00      0.00
                                0.00      0.00      0.00
                                0.00      0.00      0.00

     dft-nl  stress (kbar)      0.00      0.00      0.00
                                0.00      0.00      0.00
                                0.00      0.00      0.00

     TS-vdW  stress (kbar)      0.00      0.00      0.00
                                0.00      0.00      0.00
                                0.00      0.00      0.00


                                0.00      0.00      0.00
                                0.00      0.00      0.00


                                0.00      0.00      0.00


     Writing all to output data dir new_calculations/myprefix.save/
 
     init_run     :    480.99s CPU     21.19s WALL (       1 calls)
     electrons    :   2201.13s CPU     74.92s WALL (       1 calls)
     forces       :     23.15s CPU      0.83s WALL (       1 calls)
     stress       :     40.29s CPU      1.37s WALL (       1 calls)

     Called by init_run:
     wfcinit      :    203.55s CPU      6.96s WALL (       1 calls)
     wfcinit:atom :      0.03s CPU      0.00s WALL (       1 calls)
     wfcinit:wfcr :    203.30s CPU      6.95s WALL (       1 calls)
     potinit      :    108.35s CPU      3.98s WALL (       1 calls)
     hinit0       :    162.65s CPU      9.99s WALL (       1 calls)

     Called by electrons:
     c_bands      :   1522.07s CPU     50.88s WALL (      17 calls)
     sum_band     :    418.79s CPU     15.11s WALL (      17 calls)
     v_of_rho     :    146.81s CPU      5.08s WALL (      18 calls)
     v_h          :      8.30s CPU      0.28s WALL (      18 calls)
     v_xc         :    158.21s CPU      5.49s WALL (      20 calls)
     newd         :     84.71s CPU      2.90s WALL (      18 calls)
     mix_rho      :     15.93s CPU      0.54s WALL (      17 calls)

     Called by c_bands:
     init_us_2    :      0.78s CPU      0.03s WALL (      35 calls)
     init_us_2:cp :      0.73s CPU      0.03s WALL (      35 calls)
     regterg      :   1520.12s CPU     50.81s WALL (      17 calls)

     Called by sum_band:
     sum_band:wei :      0.03s CPU      0.00s WALL (      17 calls)
     sum_band:loo :    326.15s CPU     10.92s WALL (      17 calls)
     sum_band:buf :      0.01s CPU      0.00s WALL (      17 calls)
     sum_band:ini :      0.30s CPU      0.01s WALL (      17 calls)
     sum_band:cal :      1.88s CPU      0.07s WALL (      17 calls)
     sum_band:bec :      0.18s CPU      0.01s WALL (      17 calls)
     addusdens    :     78.81s CPU      3.72s WALL (      17 calls)
     addusd:skk   :      0.41s CPU      0.01s WALL (      51 calls)
     addusd:dgemm :      6.89s CPU      1.29s WALL (      51 calls)
     addusd:qvan2 :     69.75s CPU      2.35s WALL (      51 calls)

     Called by *egterg:
     rdiaghg      :      5.72s CPU      0.20s WALL (      72 calls)
     regterg:over :      5.18s CPU      0.18s WALL (      55 calls)
     regterg:upda :      0.81s CPU      0.03s WALL (      55 calls)
     regterg:last :      1.84s CPU      0.07s WALL (      36 calls)
     h_psi        :   1703.14s CPU     57.06s WALL (      73 calls)
     s_psi        :      0.26s CPU      0.01s WALL (      73 calls)
     g_psi        :      0.12s CPU      0.00s WALL (      55 calls)

     Called by h_psi:
     h_psi:calbec :      6.26s CPU      0.22s WALL (      73 calls)
     vloc_psi     :   1695.57s CPU     56.79s WALL (      73 calls)
     add_vuspsi   :      0.45s CPU      0.02s WALL (      73 calls)

     General routines
     calbec       :      8.06s CPU      0.28s WALL (      95 calls)
     fft          :    187.60s CPU      9.28s WALL (     216 calls)
     ffts         :     99.03s CPU      3.65s WALL (      35 calls)
     fftw         :   1770.61s CPU     59.22s WALL (    2488 calls)
     interpolate  :    109.32s CPU      4.00s WALL (      18 calls)
 
     Parallel routines
 
     PWSCF        :  45m52.46s CPU   1m39.29s WALL

 
   This run was terminated on:  23:16: 0  20May2023            

=------------------------------------------------------------------------------=
   JOB DONE.
=------------------------------------------------------------------------------=
