
     Program PWSCF v.7.0 starts on 20May2023 at 11:51:46 

     This program is part of the open-source Quantum ESPRESSO suite
     for quantum simulation of materials; please cite
         "P. Giannozzi et al., J. Phys.:Condens. Matter 21 395502 (2009);
         "P. Giannozzi et al., J. Phys.:Condens. Matter 29 465901 (2017);
         "P. Giannozzi et al., J. Chem. Phys. 152 154105 (2020);
          URL http://www.quantum-espresso.org", 
     in publications or presentations arising from this work. More details at
     http://www.quantum-espresso.org/quote

     Parallel version (MPI & OpenMP), running on      32 processor cores
     Number of MPI processes:                 1
     Threads/MPI process:                    32

     MPI processes distributed on     1 nodes
     76402 MiB available memory on the printing compute node when the environment starts
 
     Reading input from espresso_13364.pwi
Warning: card &CELL ignored
Warning: card / ignored

     Current dimensions of program PWSCF are:
     Max number of different atomic species (ntypx) = 10
     Max number of k-points (npk) =  40000
     Max angular momentum in pseudopotentials (lmaxx) =  4
     file O.pbe-n-kjpaw_psl.0.1.UPF: wavefunction(s)  2P renormalized

     gamma-point specific algorithms are used
     Message from routine setup:
     using ibrav=0 with symmetry is DISCOURAGED, use correct ibrav instead

     Subspace diagonalization in iterative solution of the eigenvalue problem:
     a serial algorithm will be used

 
     G-vector sticks info
     --------------------
     sticks:   dense  smooth     PW     G-vecs:    dense   smooth      PW
     Sum        1759     887    223                86029    30437    3803
 
     Using Slab Decomposition
 


     bravais-lattice index     =            0
     lattice parameter (alat)  =      10.0074  a.u.
     unit-cell volume          =    1370.2252 (a.u.)^3
     number of atoms/cell      =           20
     number of atomic types    =            3
     number of electrons       =        96.00
     number of Kohn-Sham states=           58
     kinetic-energy cutoff     =      30.0000  Ry
     charge density cutoff     =     240.0000  Ry
     scf convergence threshold =      1.0E-06
     mixing beta               =       0.7000
     number of iterations used =            8  plain     mixing
     Exchange-correlation= SLA  PW   PBX  PBC
                           (   1   4   3   4   0   0   0)

     celldm(1)=  10.007396  celldm(2)=   0.000000  celldm(3)=   0.000000
     celldm(4)=   0.000000  celldm(5)=   0.000000  celldm(6)=   0.000000

     crystal axes: (cart. coord. in units of alat)
               a(1) = (   1.000000   0.000000   0.000000 )  
               a(2) = (   0.393021   0.919530   0.000000 )  
               a(3) = (   0.176463   0.116483   1.486835 )  

     reciprocal axes: (cart. coord. in units 2 pi/alat)
               b(1) = (  1.000000 -0.427415 -0.085199 )  
               b(2) = (  0.000000  1.087513 -0.085199 )  
               b(3) = (  0.000000  0.000000  0.672569 )  


     PseudoPot. # 1 for Li read from file:
     /home/pragov/projects/rrg-bengioy-ad/pragov/crystal_structure_design/SSSP/li_pbe_v1.4.uspp.F.UPF
     MD5 check sum: e912e257baa3777c20ea3d68f190483c
     Pseudo is Ultrasoft, Zval =  3.0
     Generated by new atomic code, or converted to UPF format
     Using radial grid of  751 points,  5 beta functions with: 
                l(1) =   0
                l(2) =   0
                l(3) =   0
                l(4) =   1
                l(5) =   1
     Q(r) pseudized with 10 coefficients,  rinner =    1.150   1.150   1.150


     PseudoPot. # 2 for Se read from file:
     /home/pragov/projects/rrg-bengioy-ad/pragov/crystal_structure_design/SSSP/Se_pbe_v1.uspp.F.UPF
     MD5 check sum: 1b3568f3a8ae88f9a2a0ad0698632c85
     Pseudo is Ultrasoft + core correction, Zval =  6.0
     Generated by new atomic code, or converted to UPF format
     Using radial grid of  877 points,  6 beta functions with: 
                l(1) =   0
                l(2) =   0
                l(3) =   1
                l(4) =   1
                l(5) =   2
                l(6) =   2
     Q(r) pseudized with  8 coefficients,  rinner =    1.300   1.300   1.300
                                                       1.300   1.300

     PseudoPot. # 3 for O  read from file:
     /home/pragov/projects/rrg-bengioy-ad/pragov/crystal_structure_design/SSSP/O.pbe-n-kjpaw_psl.0.1.UPF
     MD5 check sum: 0234752ac141de4415c5fc33072bef88
     Pseudo is Projector augmented-wave + core cor, Zval =  6.0
     Generated using "atomic" code by A. Dal Corso  v.5.0.99 svn rev. 10869
     Shape of augmentation charge: BESSEL
     Using radial grid of 1095 points,  4 beta functions with: 
                l(1) =   0
                l(2) =   0
                l(3) =   1
                l(4) =   1
     Q(r) pseudized with 0 coefficients 


     atomic species   valence    mass     pseudopotential
        Li             3.00     6.94000     Li( 1.00)
        Se             6.00    78.97100     Se( 1.00)
        O              6.00    15.99900     O ( 1.00)

      2 Sym. Ops., with inversion, found


                                    s                        frac. trans.

      isym =  1     identity                                     

 cryst.   s( 1) = (     1          0          0      )
                  (     0          1          0      )
                  (     0          0          1      )

 cart.    s( 1) = (  1.0000000 -0.0000000  0.0000000 )
                  (  0.0000000  1.0000000 -0.0000000 )
                  (  0.0000000  0.0000000  1.0000000 )


      isym =  2     inversion                                    

 cryst.   s( 2) = (    -1          0          0      )
                  (     0         -1          0      )
                  (     0          0         -1      )

 cart.    s( 2) = ( -1.0000000  0.0000000 -0.0000000 )
                  (  0.0000000 -1.0000000  0.0000000 )
                  (  0.0000000  0.0000000 -1.0000000 )


   Cartesian axes

     site n.     atom                  positions (alat units)
         1           Li  tau(   1) = (   1.1312359   0.9626817   0.9607113  )
         2           Li  tau(   2) = (   0.3279017   0.4324027   1.2695419  )
         3           Li  tau(   3) = (   0.7474480   0.7210504   0.0842307  )
         4           Li  tau(   4) = (   0.5244624   0.5738581   0.6591870  )
         5           Li  tau(   5) = (   0.8220356   0.3149621   1.4026048  )
         6           Li  tau(   6) = (   1.0450212   0.4621543   0.8276485  )
         7           Li  tau(   7) = (   0.4382478   0.0733308   0.5261242  )
         8           Li  tau(   8) = (   1.2415819   0.6036097   0.2172936  )
         9           Se  tau(   9) = (   0.6297945   0.8486931   1.1151266  )
        10           Se  tau(  10) = (   0.9396892   0.1873193   0.3717089  )
        11           O   tau(  11) = (   1.3665585   0.6748353   0.9814794  )
        12           O   tau(  12) = (   0.5000984   0.1028871   1.2487738  )
        13           O   tau(  13) = (   0.5150641   0.8305956   0.3717089  )
        14           O   tau(  14) = (   1.0544196   0.2054168   1.1151266  )
        15           O   tau(  15) = (   0.7559987   0.2639438   0.6341666  )
        16           O   tau(  16) = (   0.9414249   0.3863432   0.1092512  )
        17           O   tau(  17) = (   0.8134850   0.7720687   0.8526689  )
        18           O   tau(  18) = (   0.6280588   0.6496693   1.3775843  )
        19           O   tau(  19) = (   1.0693852   0.9331254   0.2380617  )
        20           O   tau(  20) = (   0.2029252   0.3611772   0.5053561  )

   Crystallographic axes

     site n.     atom                  positions (cryst. coord.)
         1           Li  tau(   1) = (  0.6379200  0.9650770  0.6461450  )
         2           Li  tau(   2) = (  0.0349230  0.3620800  0.8538550  )
         3           Li  tau(   3) = (  0.4320840  0.7769750  0.0566510  )
         4           Li  tau(   4) = (  0.2230250  0.5679160  0.4433490  )
         5           Li  tau(   5) = (  0.5679160  0.2230250  0.9433490  )
         6           Li  tau(   6) = (  0.7769750  0.4320840  0.5566510  )
         7           Li  tau(   7) = (  0.3620800  0.0349230  0.3538550  )
         8           Li  tau(   8) = (  0.9650770  0.6379200  0.1461450  )
         9           Se  tau(   9) = (  0.1720430  0.8279570  0.7500000  )
        10           Se  tau(  10) = (  0.8279570  0.1720430  0.2500000  )
        11           O   tau(  11) = (  0.9945030  0.6502710  0.6601130  )
        12           O   tau(  12) = (  0.3497290  0.0054970  0.8398870  )
        13           O   tau(  13) = (  0.1283860  0.8716140  0.2500000  )
        14           O   tau(  14) = (  0.8716140  0.1283860  0.7500000  )
        15           O   tau(  15) = (  0.5891550  0.2330120  0.4265210  )
        16           O   tau(  16) = (  0.7669880  0.4108450  0.0734790  )
        17           O   tau(  17) = (  0.4108450  0.7669880  0.5734790  )
        18           O   tau(  18) = (  0.2330120  0.5891550  0.9265210  )
        19           O   tau(  19) = (  0.6502710  0.9945030  0.1601130  )
        20           O   tau(  20) = (  0.0054970  0.3497290  0.3398870  )

     number of k points=     1  Methfessel-Paxton smearing, width (Ry)=  0.0010
                       cart. coord. in units 2pi/alat
        k(    1) = (   0.0000000   0.0000000   0.0000000), wk =   2.0000000

                       cryst. coord.
        k(    1) = (   0.0000000   0.0000000   0.0000000), wk =   2.0000000

     Dense  grid:    43015 G-vectors     FFT dimensions: (  50,  50,  75)

     Smooth grid:    15219 G-vectors     FFT dimensions: (  36,  36,  54)

     Dynamical RAM for                 wfc:       1.68 MB

     Dynamical RAM for     wfc (w. buffer):       1.68 MB

     Dynamical RAM for           str. fact:       1.97 MB

     Dynamical RAM for           local pot:       0.00 MB

     Dynamical RAM for          nlocal pot:       5.45 MB

     Dynamical RAM for                qrad:       3.73 MB

     Dynamical RAM for          rho,v,vnew:       6.26 MB

     Dynamical RAM for               rhoin:       2.09 MB

     Dynamical RAM for            rho*nmix:      10.50 MB

     Dynamical RAM for           G-vectors:       2.58 MB

     Dynamical RAM for          h,s,v(r/c):       0.31 MB

     Dynamical RAM for          <psi|beta>:       0.08 MB

     Dynamical RAM for                 psi:       3.36 MB

     Dynamical RAM for                hpsi:       3.36 MB

     Dynamical RAM for                spsi:       3.36 MB

     Dynamical RAM for      wfcinit/wfcrot:       5.28 MB

     Dynamical RAM for           addusdens:     128.65 MB

     Dynamical RAM for          addusforce:     140.83 MB

     Dynamical RAM for         addusstress:     131.93 MB

     Estimated static dynamical RAM per process >      33.54 MB

     Estimated max dynamical RAM per process >     184.87 MB

     Check: negative core charge=   -0.000012

     Initial potential from superposition of free atoms

     starting charge      92.3939, renormalised to      96.0000
     Starting wfcs are   88 randomized atomic wfcs
     Checking if some PAW data can be deallocated... 

     total cpu time spent up to now is        4.2 secs

     Self-consistent Calculation

     iteration #  1     ecut=    30.00 Ry     beta= 0.70
     Davidson diagonalization with overlap

---- Real-time Memory Report at c_bands before calling an iterative solver
           584 MiB given to the printing process from OS
             0 MiB allocation reported by mallinfo(arena+hblkhd)
         76019 MiB available memory on the node where the printing process lives
------------------
     ethr =  1.00E-02,  avg # of iterations =  2.0

     total cpu time spent up to now is        4.9 secs

     total energy              =    -618.26846911 Ry
     estimated scf accuracy    <       3.24157373 Ry

     iteration #  2     ecut=    30.00 Ry     beta= 0.70
     Davidson diagonalization with overlap

---- Real-time Memory Report at c_bands before calling an iterative solver
           682 MiB given to the printing process from OS
             0 MiB allocation reported by mallinfo(arena+hblkhd)
         76010 MiB available memory on the node where the printing process lives
------------------
     ethr =  3.38E-03,  avg # of iterations =  3.0

     total cpu time spent up to now is        5.7 secs

     total energy              =    -619.07777473 Ry
     estimated scf accuracy    <       3.44047867 Ry

     iteration #  3     ecut=    30.00 Ry     beta= 0.70
     Davidson diagonalization with overlap

---- Real-time Memory Report at c_bands before calling an iterative solver
           721 MiB given to the printing process from OS
             0 MiB allocation reported by mallinfo(arena+hblkhd)
         75970 MiB available memory on the node where the printing process lives
------------------
     ethr =  3.38E-03,  avg # of iterations =  2.0

     total cpu time spent up to now is        6.6 secs

     total energy              =    -619.78219763 Ry
     estimated scf accuracy    <       0.07712259 Ry

     iteration #  4     ecut=    30.00 Ry     beta= 0.70
     Davidson diagonalization with overlap

---- Real-time Memory Report at c_bands before calling an iterative solver
           723 MiB given to the printing process from OS
             0 MiB allocation reported by mallinfo(arena+hblkhd)
         75971 MiB available memory on the node where the printing process lives
------------------
     ethr =  8.03E-05,  avg # of iterations =  3.0

     total cpu time spent up to now is        7.3 secs

     total energy              =    -619.80564724 Ry
     estimated scf accuracy    <       0.06495427 Ry

     iteration #  5     ecut=    30.00 Ry     beta= 0.70
     Davidson diagonalization with overlap

---- Real-time Memory Report at c_bands before calling an iterative solver
           723 MiB given to the printing process from OS
             0 MiB allocation reported by mallinfo(arena+hblkhd)
         75969 MiB available memory on the node where the printing process lives
------------------
     ethr =  6.77E-05,  avg # of iterations =  2.0

     total cpu time spent up to now is        8.0 secs

     total energy              =    -619.81597091 Ry
     estimated scf accuracy    <       0.00092480 Ry

     iteration #  6     ecut=    30.00 Ry     beta= 0.70
     Davidson diagonalization with overlap

---- Real-time Memory Report at c_bands before calling an iterative solver
           724 MiB given to the printing process from OS
             0 MiB allocation reported by mallinfo(arena+hblkhd)
         75971 MiB available memory on the node where the printing process lives
------------------
     ethr =  9.63E-07,  avg # of iterations = 11.0

     total cpu time spent up to now is        9.0 secs

     total energy              =    -619.81671150 Ry
     estimated scf accuracy    <       0.00026195 Ry

     iteration #  7     ecut=    30.00 Ry     beta= 0.70
     Davidson diagonalization with overlap

---- Real-time Memory Report at c_bands before calling an iterative solver
           725 MiB given to the printing process from OS
             0 MiB allocation reported by mallinfo(arena+hblkhd)
         75968 MiB available memory on the node where the printing process lives
------------------
     ethr =  2.73E-07,  avg # of iterations =  5.0

     total cpu time spent up to now is        9.7 secs

     total energy              =    -619.81676236 Ry
     estimated scf accuracy    <       0.00003932 Ry

     iteration #  8     ecut=    30.00 Ry     beta= 0.70
     Davidson diagonalization with overlap

---- Real-time Memory Report at c_bands before calling an iterative solver
           727 MiB given to the printing process from OS
             0 MiB allocation reported by mallinfo(arena+hblkhd)
         75967 MiB available memory on the node where the printing process lives
------------------
     ethr =  4.10E-08,  avg # of iterations =  7.0

     total cpu time spent up to now is       10.4 secs

     total energy              =    -619.81677380 Ry
     estimated scf accuracy    <       0.00000770 Ry

     iteration #  9     ecut=    30.00 Ry     beta= 0.70
     Davidson diagonalization with overlap

---- Real-time Memory Report at c_bands before calling an iterative solver
           727 MiB given to the printing process from OS
             0 MiB allocation reported by mallinfo(arena+hblkhd)
         75971 MiB available memory on the node where the printing process lives
------------------
     ethr =  8.02E-09,  avg # of iterations =  4.0

     total cpu time spent up to now is       11.1 secs

     total energy              =    -619.81677586 Ry
     estimated scf accuracy    <       0.00000209 Ry

     iteration # 10     ecut=    30.00 Ry     beta= 0.70
     Davidson diagonalization with overlap

---- Real-time Memory Report at c_bands before calling an iterative solver
           727 MiB given to the printing process from OS
             0 MiB allocation reported by mallinfo(arena+hblkhd)
         75972 MiB available memory on the node where the printing process lives
------------------
     ethr =  2.18E-09,  avg # of iterations =  2.0

     total cpu time spent up to now is       11.8 secs

     End of self-consistent calculation

          k = 0.0000 0.0000 0.0000 (  1902 PWs)   bands (ev):

   -39.5455 -39.5437 -39.5288 -39.5269 -39.0021 -38.9983 -38.9925 -38.9883
   -17.2144 -17.1124 -14.3020 -14.2620 -14.2234 -14.1229 -13.5540 -13.5063
   -12.5228 -12.4087  -6.9334  -6.6113  -2.3834  -2.3636  -2.2050  -2.1621
    -2.1019  -1.8015   0.3292   0.3437   0.4824   0.5662   0.8460   1.0055
     1.4977   1.5474   1.5759   1.8160   2.0482   2.1830   2.2620   2.7323
     2.7333   2.7816   2.8204   3.0486   3.1256   3.3218   3.5685   3.5744
     6.0944   7.0418   9.7786  10.0085  10.3662  10.4189  10.9207  10.9854
    11.5590  11.7700

     occupation numbers 
     1.0000   1.0000   1.0000   1.0000   1.0000   1.0000   1.0000   1.0000
     1.0000   1.0000   1.0000   1.0000   1.0000   1.0000   1.0000   1.0000
     1.0000   1.0000   1.0000   1.0000   1.0000   1.0000   1.0000   1.0000
     1.0000   1.0000   1.0000   1.0000   1.0000   1.0000   1.0000   1.0000
     1.0000   1.0000   1.0000   1.0000   1.0000   1.0000   1.0000   1.0000
     1.0000   1.0000   1.0000   1.0000   1.0000   1.0000   1.0000   1.0000
    -0.0000  -0.0000  -0.0000  -0.0000  -0.0000  -0.0000  -0.0000  -0.0000
    -0.0000  -0.0000

     the Fermi energy is     5.4576 ev

!    total energy              =    -619.81677589 Ry
     estimated scf accuracy    <       0.00000062 Ry
     smearing contrib. (-TS)   =       0.00000000 Ry
     internal energy E=F+TS    =    -619.81677589 Ry

     The total energy is F=E-TS. E is the sum of the following terms:
     one-electron contribution =    -190.72445379 Ry
     hartree contribution      =     134.73554637 Ry
     xc contribution           =    -162.19703781 Ry
     ewald contribution        =    -306.41014941 Ry
     one-center paw contrib.   =     -95.22068124 Ry
      -> PAW hartree energy AE =     300.19367317 Ry
      -> PAW hartree energy PS =    -299.13945303 Ry
      -> PAW xc energy AE      =    -172.31781425 Ry
      -> PAW xc energy PS      =      76.04291287 Ry
      -> total E_H with PAW    =     135.78976650 Ry
      -> total E_XC with PAW   =    -258.47193919 Ry

     convergence has been achieved in  10 iterations

     Forces acting on atoms (cartesian axes, Ry/au):

     atom    1 type  1   force =    -0.00026258   -0.00129564    0.00032750
     atom    2 type  1   force =     0.00130164   -0.00027748   -0.00035770
     atom    3 type  1   force =     0.00059515    0.00141468   -0.00115043
     atom    4 type  1   force =    -0.00154638    0.00002132    0.00115455
     atom    5 type  1   force =    -0.00059515   -0.00141468    0.00115043
     atom    6 type  1   force =     0.00154638   -0.00002132   -0.00115455
     atom    7 type  1   force =     0.00026258    0.00129564   -0.00032750
     atom    8 type  1   force =    -0.00130164    0.00027748    0.00035770
     atom    9 type  2   force =     0.00050506   -0.00082325    0.00004204
     atom   10 type  2   force =    -0.00050506    0.00082325   -0.00004204
     atom   11 type  3   force =     0.02214089   -0.00806054    0.00053988
     atom   12 type  3   force =    -0.00127024   -0.02351685   -0.00051998
     atom   13 type  3   force =     0.00449653   -0.00684209   -0.00003041
     atom   14 type  3   force =    -0.00449653    0.00684209    0.00003041
     atom   15 type  3   force =     0.00533863   -0.01323289    0.01677942
     atom   16 type  3   force =     0.01007498   -0.01020429   -0.01668310
     atom   17 type  3   force =    -0.00533863    0.01323289   -0.01677942
     atom   18 type  3   force =    -0.01007498    0.01020429    0.01668310
     atom   19 type  3   force =     0.00127024    0.02351685    0.00051998
     atom   20 type  3   force =    -0.02214089    0.00806054   -0.00053988
     The non-local contrib.  to forces
     atom    1 type  1   force =    -0.00736880    0.03810928   -0.03044915
     atom    2 type  1   force =    -0.03213841    0.02173985    0.03041590
     atom    3 type  1   force =     0.04537274   -0.00790714    0.06386866
     atom    4 type  1   force =    -0.01056307   -0.04481134   -0.06386682
     atom    5 type  1   force =    -0.04537274    0.00790714   -0.06386866
     atom    6 type  1   force =     0.01056307    0.04481134    0.06386682
     atom    7 type  1   force =     0.00736880   -0.03810928    0.03044915
     atom    8 type  1   force =     0.03213841   -0.02173985   -0.03041590
     atom    9 type  2   force =    -0.01937953    0.02962594   -0.00012923
     atom   10 type  2   force =     0.01937953   -0.02962594    0.00012923
     atom   11 type  3   force =     0.80420978    0.64487304    0.40889856
     atom   12 type  3   force =    -0.90893322   -0.48602277   -0.40905871
     atom   13 type  3   force =    -0.76082407    1.15249201    0.00004091
     atom   14 type  3   force =     0.76082407   -1.15249201   -0.00004091
     atom   15 type  3   force =     0.69299838   -0.27251442   -1.12398686
     atom   16 type  3   force =    -0.02189120   -0.74454389    1.12423786
     atom   17 type  3   force =    -0.69299838    0.27251442    1.12398686
     atom   18 type  3   force =     0.02189120    0.74454389   -1.12423786
     atom   19 type  3   force =     0.90893322    0.48602277    0.40905871
     atom   20 type  3   force =    -0.80420978   -0.64487304   -0.40889856
     The ionic contribution  to forces
     atom    1 type  1   force =    -0.23635002    0.49611988   -0.33905407
     atom    2 type  1   force =    -0.36330650    0.41231620    0.33905407
     atom    3 type  1   force =     0.62437284   -0.08504941    0.54949961
     atom    4 type  1   force =    -0.16718597   -0.60755551   -0.54949961
     atom    5 type  1   force =    -0.62437284    0.08504941   -0.54949961
     atom    6 type  1   force =     0.16718597    0.60755551    0.54949961
     atom    7 type  1   force =     0.23635002   -0.49611988    0.33905407
     atom    8 type  1   force =     0.36330650   -0.41231620   -0.33905407
     atom    9 type  2   force =     0.13451602   -0.20378200    0.00000000
     atom   10 type  2   force =    -0.13451602    0.20378200   -0.00000000
     atom   11 type  3   force =    -3.80323914   -2.94151138   -1.87181076
     atom   12 type  3   force =     4.19955843    2.34111642    1.87181076
     atom   13 type  3   force =     2.91404169   -4.41456159    0.00000000
     atom   14 type  3   force =    -2.91404169    4.41456159    0.00000000
     atom   15 type  3   force =    -2.95810869    1.54738772    4.01271153
     atom   16 type  3   force =    -0.26027108    3.32822396   -4.01271153
     atom   17 type  3   force =     2.95810869   -1.54738772   -4.01271153
     atom   18 type  3   force =     0.26027108   -3.32822396    4.01271153
     atom   19 type  3   force =    -4.19955843   -2.34111642   -1.87181076
     atom   20 type  3   force =     3.80323914    2.94151138    1.87181076
     The local contribution  to forces
     atom    1 type  1   force =     0.24337895   -0.53549620    0.36971020
     atom    2 type  1   force =     0.39671021   -0.43439242   -0.36984895
     atom    3 type  1   force =    -0.66916131    0.09437326   -0.61445399
     atom    4 type  1   force =     0.17633426    0.65243434    0.61452104
     atom    5 type  1   force =     0.66917951   -0.09438961    0.61448013
     atom    6 type  1   force =    -0.17633177   -0.65236093   -0.61454324
     atom    7 type  1   force =    -0.24344459    0.53543610   -0.36968665
     atom    8 type  1   force =    -0.39674844    0.43437542    0.36988270
     atom    9 type  2   force =    -0.11676860    0.17696892   -0.00020393
     atom   10 type  2   force =     0.11678173   -0.17697013    0.00012757
     atom   11 type  3   force =     3.02936954    2.29557212    1.46755345
     atom   12 type  3   force =    -3.30147359   -1.88340985   -1.46767007
     atom   13 type  3   force =    -2.15666329    3.26730357    0.00015465
     atom   14 type  3   force =     2.15665343   -3.26735606   -0.00009965
     atom   15 type  3   force =     2.27738060   -1.29071566   -2.88329179
     atom   16 type  3   force =     0.29183933   -2.60132557    2.88341844
     atom   17 type  3   force =    -2.27739761    1.29068447    2.88324245
     atom   18 type  3   force =    -0.29187233    2.60134262   -2.88339444
     atom   19 type  3   force =     3.30142043    1.88340969    1.46772699
     atom   20 type  3   force =    -3.02941048   -2.29554842   -1.46756181
     The core correction contribution to forces
     atom    1 type  1   force =     0.00000000    0.00000000    0.00000000
     atom    2 type  1   force =     0.00000000    0.00000000    0.00000000
     atom    3 type  1   force =     0.00000000    0.00000000    0.00000000
     atom    4 type  1   force =     0.00000000    0.00000000    0.00000000
     atom    5 type  1   force =     0.00000000    0.00000000    0.00000000
     atom    6 type  1   force =     0.00000000    0.00000000    0.00000000
     atom    7 type  1   force =     0.00000000    0.00000000    0.00000000
     atom    8 type  1   force =     0.00000000    0.00000000    0.00000000
     atom    9 type  2   force =     0.00228980   -0.00352364    0.00003636
     atom   10 type  2   force =    -0.00231376    0.00351731   -0.00002255
     atom   11 type  3   force =    -0.00801694   -0.00677637   -0.00416045
     atom   12 type  3   force =     0.00938004    0.00470819    0.00416232
     atom   13 type  3   force =     0.00793237   -0.01201426   -0.00000785
     atom   14 type  3   force =    -0.00793358    0.01201455    0.00000849
     atom   15 type  3   force =    -0.00693909    0.00255328    0.01147890
     atom   16 type  3   force =     0.00038276    0.00738786   -0.01147997
     atom   17 type  3   force =     0.00693835   -0.00255351   -0.01147750
     atom   18 type  3   force =    -0.00038360   -0.00738887    0.01148086
     atom   19 type  3   force =    -0.00938124   -0.00470778   -0.00416173
     atom   20 type  3   force =     0.00801624    0.00677629    0.00416101
     The Hubbard contrib.    to forces
     atom    1 type  1   force =     0.00000000    0.00000000    0.00000000
     atom    2 type  1   force =     0.00000000    0.00000000    0.00000000
     atom    3 type  1   force =     0.00000000    0.00000000    0.00000000
     atom    4 type  1   force =     0.00000000    0.00000000    0.00000000
     atom    5 type  1   force =     0.00000000    0.00000000    0.00000000
     atom    6 type  1   force =     0.00000000    0.00000000    0.00000000
     atom    7 type  1   force =     0.00000000    0.00000000    0.00000000
     atom    8 type  1   force =     0.00000000    0.00000000    0.00000000
     atom    9 type  2   force =     0.00000000    0.00000000    0.00000000
     atom   10 type  2   force =     0.00000000    0.00000000    0.00000000
     atom   11 type  3   force =     0.00000000    0.00000000    0.00000000
     atom   12 type  3   force =     0.00000000    0.00000000    0.00000000
     atom   13 type  3   force =     0.00000000    0.00000000    0.00000000
     atom   14 type  3   force =     0.00000000    0.00000000    0.00000000
     atom   15 type  3   force =     0.00000000    0.00000000    0.00000000
     atom   16 type  3   force =     0.00000000    0.00000000    0.00000000
     atom   17 type  3   force =     0.00000000    0.00000000    0.00000000
     atom   18 type  3   force =     0.00000000    0.00000000    0.00000000
     atom   19 type  3   force =     0.00000000    0.00000000    0.00000000
     atom   20 type  3   force =     0.00000000    0.00000000    0.00000000
     The SCF correction term to forces
     atom    1 type  1   force =     0.00007542   -0.00002565    0.00012056
     atom    2 type  1   force =     0.00003161    0.00006040    0.00001956
     atom    3 type  1   force =     0.00000950   -0.00000083   -0.00005829
     atom    4 type  1   force =    -0.00012947   -0.00004455    0.00000643
     atom    5 type  1   force =    -0.00003047    0.00001959    0.00004499
     atom    6 type  1   force =     0.00013126   -0.00002560    0.00002873
     atom    7 type  1   force =    -0.00001352    0.00009165   -0.00014402
     atom    8 type  1   force =    -0.00000283   -0.00004037   -0.00005675
     atom    9 type  2   force =    -0.00025609   -0.00013310    0.00041378
     atom   10 type  2   force =     0.00006001    0.00009938   -0.00020135
     atom   11 type  3   force =    -0.00020610   -0.00023219    0.00007889
     atom   12 type  3   force =     0.00017312    0.00010592    0.00026387
     atom   13 type  3   force =    -0.00002134   -0.00005370   -0.00021242
     atom   14 type  3   force =    -0.00002991    0.00012214    0.00016817
     atom   15 type  3   force =    -0.00000931    0.00003970   -0.00012258
     atom   16 type  3   force =     0.00000046    0.00002834   -0.00013412
     atom   17 type  3   force =    -0.00000641   -0.00004128    0.00019006
     atom   18 type  3   force =     0.00000396   -0.00009440    0.00013678
     atom   19 type  3   force =    -0.00016871   -0.00007666   -0.00026507
     atom   20 type  3   force =     0.00020024    0.00018011   -0.00003148

     Total force =     0.065706     Total SCF correction =     0.000999


     Computing stress (Cartesian axis) and pressure

          total   stress  (Ry/bohr**3)                   (kbar)     P=     -364.19
  -0.00251652  -0.00001110  -0.00009507         -370.19       -1.63      -13.99
  -0.00001110  -0.00250674  -0.00006308           -1.63     -368.75       -9.28
  -0.00009507  -0.00006308  -0.00240384          -13.99       -9.28     -353.62

     kinetic stress (kbar)  15171.33     52.96     19.84
                               52.96  15126.05     13.09
                               19.84     13.09  15076.90

     local   stress (kbar)  -9580.27  -2960.07  -2255.15
                            -2960.07  -7049.82  -1488.69
                            -2255.15  -1488.69  -6873.68

     nonloc. stress (kbar)   2397.65      0.17     -2.52
                                0.17   2397.52     -1.68
                               -2.52     -1.68   2391.23

     hartree stress (kbar)   5468.63   1124.99    856.37
                             1124.99   4506.89    565.33
                              856.37    565.33   4489.46

     exc-cor stress (kbar)   1924.91      3.52      2.67
                                3.52   1921.90      1.76
                                2.67      1.76   1921.42

     corecor stress (kbar)  -5829.50     -0.52      0.03
                               -0.52  -5829.05      0.02
                                0.03      0.02  -5828.45

     ewald   stress (kbar)  -9922.94   1777.31   1364.77
                             1777.31 -11442.24    900.88
                             1364.77    900.88 -11530.50

     hubbard stress (kbar)      0.00      0.00      0.00
                                0.00      0.00      0.00
                                0.00      0.00      0.00

     DFT-D   stress (kbar)      0.00      0.00      0.00
                                0.00      0.00      0.00
                                0.00      0.00      0.00

     XDM     stress (kbar)      0.00      0.00      0.00
                                0.00      0.00      0.00
                                0.00      0.00      0.00

     dft-nl  stress (kbar)      0.00      0.00      0.00
                                0.00      0.00      0.00
                                0.00      0.00      0.00

     TS-vdW  stress (kbar)      0.00      0.00      0.00
                                0.00      0.00      0.00
                                0.00      0.00      0.00


                                0.00      0.00      0.00
                                0.00      0.00      0.00


                                0.00      0.00      0.00


     Writing all to output data dir new_calculations/myprefix.save/
 
     init_run     :     95.38s CPU      4.05s WALL (       1 calls)
     electrons    :    224.84s CPU      7.57s WALL (       1 calls)
     forces       :      4.47s CPU      0.15s WALL (       1 calls)
     stress       :     13.34s CPU      0.44s WALL (       1 calls)

     Called by init_run:
     wfcinit      :     22.75s CPU      0.73s WALL (       1 calls)
     wfcinit:atom :      0.05s CPU      0.00s WALL (       1 calls)
     wfcinit:wfcr :     22.44s CPU      0.72s WALL (       1 calls)
     potinit      :     19.66s CPU      0.64s WALL (       1 calls)
     hinit0       :     49.45s CPU      2.51s WALL (       1 calls)

     Called by electrons:
     c_bands      :    131.09s CPU      4.17s WALL (      10 calls)
     sum_band     :     35.63s CPU      1.44s WALL (      10 calls)
     v_of_rho     :      7.42s CPU      0.25s WALL (      11 calls)
     v_h          :      0.65s CPU      0.02s WALL (      11 calls)
     v_xc         :      7.78s CPU      0.26s WALL (      13 calls)
     newd         :     19.20s CPU      0.68s WALL (      11 calls)
     PAW_pot      :     32.66s CPU      1.07s WALL (      11 calls)
     mix_rho      :      1.83s CPU      0.06s WALL (      10 calls)

     Called by c_bands:
     init_us_2    :      0.28s CPU      0.01s WALL (      21 calls)
     init_us_2:cp :      0.25s CPU      0.01s WALL (      21 calls)
     regterg      :    130.05s CPU      4.14s WALL (      10 calls)

     Called by sum_band:
     sum_band:wei :      0.02s CPU      0.00s WALL (      10 calls)
     sum_band:loo :     19.31s CPU      0.61s WALL (      10 calls)
     sum_band:buf :      0.01s CPU      0.00s WALL (      10 calls)
     sum_band:ini :      0.12s CPU      0.00s WALL (      10 calls)
     sum_band:cal :      0.10s CPU      0.00s WALL (      10 calls)
     sum_band:bec :      0.05s CPU      0.00s WALL (      10 calls)
     addusdens    :     15.22s CPU      0.79s WALL (      10 calls)
     addusd:skk   :      0.41s CPU      0.03s WALL (      30 calls)
     addusd:dgemm :      1.49s CPU      0.30s WALL (      30 calls)
     addusd:qvan2 :     12.33s CPU      0.40s WALL (      30 calls)

     Called by *egterg:
     rdiaghg      :      6.18s CPU      0.21s WALL (      51 calls)
     regterg:over :      0.25s CPU      0.01s WALL (      41 calls)
     regterg:upda :      0.44s CPU      0.01s WALL (      41 calls)
     regterg:last :      1.04s CPU      0.03s WALL (      22 calls)
     h_psi        :    141.38s CPU      4.49s WALL (      52 calls)
     s_psi        :      0.46s CPU      0.02s WALL (      52 calls)
     g_psi        :      0.05s CPU      0.00s WALL (      41 calls)

     Called by h_psi:
     h_psi:calbec :      0.48s CPU      0.02s WALL (      52 calls)
     vloc_psi     :    140.32s CPU      4.46s WALL (      52 calls)
     add_vuspsi   :      0.27s CPU      0.01s WALL (      52 calls)

     General routines
     calbec       :      0.54s CPU      0.02s WALL (      67 calls)
     fft          :     37.23s CPU      1.28s WALL (     139 calls)
     ffts         :     14.82s CPU      0.48s WALL (      21 calls)
     fftw         :    146.42s CPU      4.64s WALL (    1982 calls)
     interpolate  :     15.30s CPU      0.50s WALL (      11 calls)
 
     Parallel routines

     PAW routines
     PAW_pot      :     32.66s CPU      1.07s WALL (      11 calls)
     PAW_symme    :      0.04s CPU      0.00s WALL (      21 calls)
 
     PWSCF        :   5m49.06s CPU     13.17s WALL

 
   This run was terminated on:  11:51:59  20May2023            

=------------------------------------------------------------------------------=
   JOB DONE.
=------------------------------------------------------------------------------=
