
     Program PWSCF v.7.0 starts on 20May2023 at  9: 5:38 

     This program is part of the open-source Quantum ESPRESSO suite
     for quantum simulation of materials; please cite
         "P. Giannozzi et al., J. Phys.:Condens. Matter 21 395502 (2009);
         "P. Giannozzi et al., J. Phys.:Condens. Matter 29 465901 (2017);
         "P. Giannozzi et al., J. Chem. Phys. 152 154105 (2020);
          URL http://www.quantum-espresso.org", 
     in publications or presentations arising from this work. More details at
     http://www.quantum-espresso.org/quote

     Parallel version (MPI & OpenMP), running on      32 processor cores
     Number of MPI processes:                 1
     Threads/MPI process:                    32

     MPI processes distributed on     1 nodes
     127624 MiB available memory on the printing compute node when the environment starts
 
     Reading input from espresso_5285.pwi
Warning: card &CELL ignored
Warning: card / ignored

     Current dimensions of program PWSCF are:
     Max number of different atomic species (ntypx) = 10
     Max number of k-points (npk) =  40000
     Max angular momentum in pseudopotentials (lmaxx) =  4
     file O.pbe-n-kjpaw_psl.0.1.UPF: wavefunction(s)  2P renormalized

     gamma-point specific algorithms are used

     Subspace diagonalization in iterative solution of the eigenvalue problem:
     a serial algorithm will be used

 
     G-vector sticks info
     --------------------
     sticks:   dense  smooth     PW     G-vecs:    dense   smooth      PW
     Sum        1685     843    209                43513    15353    1895
 
     Using Slab Decomposition
 


     bravais-lattice index     =            0
     lattice parameter (alat)  =       9.5454  a.u.
     unit-cell volume          =     692.3968 (a.u.)^3
     number of atoms/cell      =           10
     number of atomic types    =            3
     number of electrons       =        98.00
     number of Kohn-Sham states=           59
     kinetic-energy cutoff     =      30.0000  Ry
     charge density cutoff     =     240.0000  Ry
     scf convergence threshold =      1.0E-06
     mixing beta               =       0.7000
     number of iterations used =            8  plain     mixing
     Exchange-correlation= SLA  PW   PBX  PBC
                           (   1   4   3   4   0   0   0)

     celldm(1)=   9.545395  celldm(2)=   0.000000  celldm(3)=   0.000000
     celldm(4)=   0.000000  celldm(5)=   0.000000  celldm(6)=   0.000000

     crystal axes: (cart. coord. in units of alat)
               a(1) = (   1.000000   0.000000   0.000000 )  
               a(2) = (   0.500471   0.966643   0.000000 )  
               a(3) = (  -0.492522  -0.273698   0.823583 )  

     reciprocal axes: (cart. coord. in units 2 pi/alat)
               b(1) = (  1.000000 -0.517742  0.425965 )  
               b(2) = (  0.000000  1.034508  0.343794 )  
               b(3) = (  0.000000  0.000000  1.214207 )  


     PseudoPot. # 1 for V  read from file:
     /home/pragov/projects/rrg-bengioy-ad/pragov/crystal_structure_design/SSSP/v_pbe_v1.4.uspp.F.UPF
     MD5 check sum: 22b79981416ebb76fdaf5b1b8640f6fb
     Pseudo is Ultrasoft + core correction, Zval = 13.0
     Generated by new atomic code, or converted to UPF format
     Using radial grid of  853 points,  6 beta functions with: 
                l(1) =   0
                l(2) =   0
                l(3) =   1
                l(4) =   1
                l(5) =   2
                l(6) =   2
     Q(r) pseudized with  8 coefficients,  rinner =    1.100   1.100   1.100
                                                       1.100   1.100

     PseudoPot. # 2 for Ni read from file:
     /home/pragov/projects/rrg-bengioy-ad/pragov/crystal_structure_design/SSSP/ni_pbe_v1.4.uspp.F.UPF
     MD5 check sum: 1ee80287db30b12d2bc1f57a5b5d6409
     Pseudo is Ultrasoft + core correction, Zval = 18.0
     Generated by new atomic code, or converted to UPF format
     Using radial grid of  865 points,  6 beta functions with: 
                l(1) =   0
                l(2) =   0
                l(3) =   1
                l(4) =   1
                l(5) =   2
                l(6) =   2
     Q(r) pseudized with 10 coefficients,  rinner =    0.980   0.980   0.980
                                                       0.980   0.980

     PseudoPot. # 3 for O  read from file:
     /home/pragov/projects/rrg-bengioy-ad/pragov/crystal_structure_design/SSSP/O.pbe-n-kjpaw_psl.0.1.UPF
     MD5 check sum: 0234752ac141de4415c5fc33072bef88
     Pseudo is Projector augmented-wave + core cor, Zval =  6.0
     Generated using "atomic" code by A. Dal Corso  v.5.0.99 svn rev. 10869
     Shape of augmentation charge: BESSEL
     Using radial grid of 1095 points,  4 beta functions with: 
                l(1) =   0
                l(2) =   0
                l(3) =   1
                l(4) =   1
     Q(r) pseudized with 0 coefficients 


     atomic species   valence    mass     pseudopotential
        V             13.00    50.94150     V ( 1.00)
        Ni            18.00    58.69340     Ni( 1.00)
        O              6.00    15.99900     O ( 1.00)

     No symmetry found


                                    s                        frac. trans.

      isym =  1     identity                                     

 cryst.   s( 1) = (     1          0          0      )
                  (     0          1          0      )
                  (     0          0          1      )

 cart.    s( 1) = (  1.0000000 -0.0000000  0.0000000 )
                  (  0.0000000  1.0000000  0.0000000 )
                  (  0.0000000  0.0000000  1.0000000 )


   Cartesian axes

     site n.     atom                  positions (alat units)
         1           V   tau(   1) = (   0.5067729  -0.0429139   0.2833141  )
         2           V   tau(   2) = (   0.5017307   0.7329690   0.5330647  )
         3           Ni  tau(   3) = (   1.0001557   0.3940819   0.1226084  )
         4           Ni  tau(   4) = (   0.0087682   0.3127811   0.7034681  )
         5           O   tau(   5) = (   0.3631005   0.2078643   0.0648868  )
         6           O   tau(   6) = (   0.6564355   0.4706528   0.7899690  )
         7           O   tau(   7) = (   0.7042891   0.6657491   0.2096463  )
         8           O   tau(   8) = (   0.3216889   0.0284089   0.5903202  )
         9           O   tau(   9) = (   0.8213839   0.1103178   0.3619061  )
        10           O   tau(  10) = (   0.1554185   0.5848123   0.4587306  )

   Crystallographic axes

     site n.     atom                  positions (cryst. coord.)
         1           V   tau(   1) = (  0.6496730  0.0530070  0.3440020  )
         2           V   tau(   2) = (  0.3493090  0.9415270  0.6472510  )
         3           Ni  tau(   3) = (  0.8483500  0.4498330  0.1488720  )
         4           Ni  tau(   4) = (  0.1464810  0.5654230  0.8541560  )
         5           O   tau(   5) = (  0.2831200  0.2373450  0.0787860  )
         6           O   tau(   6) = (  0.7492580  0.7584810  0.9591860  )
         7           O   tau(   7) = (  0.4489050  0.7607980  0.2545540  )
         8           O   tau(   8) = (  0.5584360  0.2323380  0.7167710  )
         9           O   tau(   9) = (  0.9184270  0.2385460  0.4394290  )
        10           O   tau(  10) = (  0.0480400  0.7627020  0.5569940  )

     number of k points=     1  Methfessel-Paxton smearing, width (Ry)=  0.0010
                       cart. coord. in units 2pi/alat
        k(    1) = (   0.0000000   0.0000000   0.0000000), wk =   2.0000000

                       cryst. coord.
        k(    1) = (   0.0000000   0.0000000   0.0000000), wk =   2.0000000

     Dense  grid:    21757 G-vectors     FFT dimensions: (  48,  54,  48)

     Smooth grid:     7677 G-vectors     FFT dimensions: (  36,  40,  36)

     Dynamical RAM for                 wfc:       0.87 MB

     Dynamical RAM for     wfc (w. buffer):       0.87 MB

     Dynamical RAM for           str. fact:       1.00 MB

     Dynamical RAM for           local pot:       0.00 MB

     Dynamical RAM for          nlocal pot:       1.76 MB

     Dynamical RAM for                qrad:       3.73 MB

     Dynamical RAM for          rho,v,vnew:       3.84 MB

     Dynamical RAM for               rhoin:       1.28 MB

     Dynamical RAM for            rho*nmix:       5.31 MB

     Dynamical RAM for           G-vectors:       1.30 MB

     Dynamical RAM for          h,s,v(r/c):       0.32 MB

     Dynamical RAM for          <psi|beta>:       0.05 MB

     Dynamical RAM for                 psi:       1.73 MB

     Dynamical RAM for                hpsi:       1.73 MB

     Dynamical RAM for                spsi:       1.73 MB

     Dynamical RAM for      wfcinit/wfcrot:       2.17 MB

     Dynamical RAM for           addusdens:      63.74 MB

     Dynamical RAM for          addusforce:      67.25 MB

     Dynamical RAM for         addusstress:      66.73 MB

     Estimated static dynamical RAM per process >      19.86 MB

     Estimated max dynamical RAM per process >      92.42 MB

     Check: negative core charge=   -0.000019

     Initial potential from superposition of free atoms

     starting charge      93.9975, renormalised to      98.0000

     negative rho (up, down):  1.346E-03 0.000E+00
     Starting wfcs are   70 randomized atomic wfcs
     Checking if some PAW data can be deallocated... 

     total cpu time spent up to now is        8.7 secs

     Self-consistent Calculation

     iteration #  1     ecut=    30.00 Ry     beta= 0.70
     Davidson diagonalization with overlap

---- Real-time Memory Report at c_bands before calling an iterative solver
           386 MiB given to the printing process from OS
             0 MiB allocation reported by mallinfo(arena+hblkhd)
        127423 MiB available memory on the node where the printing process lives
------------------
     ethr =  1.00E-02,  avg # of iterations =  3.0

     negative rho (up, down):  7.375E-03 0.000E+00

     total cpu time spent up to now is        9.5 secs

     total energy              =   -1215.52499161 Ry
     estimated scf accuracy    <      17.50255261 Ry

     iteration #  2     ecut=    30.00 Ry     beta= 0.70
     Davidson diagonalization with overlap

---- Real-time Memory Report at c_bands before calling an iterative solver
           407 MiB given to the printing process from OS
             0 MiB allocation reported by mallinfo(arena+hblkhd)
        127412 MiB available memory on the node where the printing process lives
------------------
     ethr =  1.00E-02,  avg # of iterations =  6.0

     negative rho (up, down):  2.639E-04 0.000E+00

     total cpu time spent up to now is       10.3 secs

     total energy              =   -1209.87631687 Ry
     estimated scf accuracy    <     138.54968056 Ry

     iteration #  3     ecut=    30.00 Ry     beta= 0.70
     Davidson diagonalization with overlap

---- Real-time Memory Report at c_bands before calling an iterative solver
           408 MiB given to the printing process from OS
             0 MiB allocation reported by mallinfo(arena+hblkhd)
        127410 MiB available memory on the node where the printing process lives
------------------
     ethr =  1.00E-02,  avg # of iterations =  4.0

     negative rho (up, down):  5.675E-04 0.000E+00

     total cpu time spent up to now is       11.0 secs

     total energy              =   -1225.97137076 Ry
     estimated scf accuracy    <      14.89040700 Ry

     iteration #  4     ecut=    30.00 Ry     beta= 0.70
     Davidson diagonalization with overlap

---- Real-time Memory Report at c_bands before calling an iterative solver
           412 MiB given to the printing process from OS
             0 MiB allocation reported by mallinfo(arena+hblkhd)
        127405 MiB available memory on the node where the printing process lives
------------------
     ethr =  1.00E-02,  avg # of iterations =  2.0

     negative rho (up, down):  1.006E-03 0.000E+00

     total cpu time spent up to now is       11.6 secs

     total energy              =   -1226.10014255 Ry
     estimated scf accuracy    <       3.98450860 Ry

     iteration #  5     ecut=    30.00 Ry     beta= 0.70
     Davidson diagonalization with overlap

---- Real-time Memory Report at c_bands before calling an iterative solver
           412 MiB given to the printing process from OS
             0 MiB allocation reported by mallinfo(arena+hblkhd)
        127402 MiB available memory on the node where the printing process lives
------------------
     ethr =  4.07E-03,  avg # of iterations =  1.0

     negative rho (up, down):  1.276E-03 0.000E+00

     total cpu time spent up to now is       12.2 secs

     total energy              =   -1225.83558263 Ry
     estimated scf accuracy    <       4.12858616 Ry

     iteration #  6     ecut=    30.00 Ry     beta= 0.70
     Davidson diagonalization with overlap

---- Real-time Memory Report at c_bands before calling an iterative solver
           412 MiB given to the printing process from OS
             0 MiB allocation reported by mallinfo(arena+hblkhd)
        127404 MiB available memory on the node where the printing process lives
------------------
     ethr =  4.07E-03,  avg # of iterations =  1.0

     negative rho (up, down):  1.317E-03 0.000E+00

     total cpu time spent up to now is       12.8 secs

     total energy              =   -1225.51382311 Ry
     estimated scf accuracy    <      37.41519313 Ry

     iteration #  7     ecut=    30.00 Ry     beta= 0.70
     Davidson diagonalization with overlap

---- Real-time Memory Report at c_bands before calling an iterative solver
           412 MiB given to the printing process from OS
             0 MiB allocation reported by mallinfo(arena+hblkhd)
        127397 MiB available memory on the node where the printing process lives
------------------
     ethr =  4.07E-03,  avg # of iterations =  1.0

     negative rho (up, down):  1.480E-03 0.000E+00

     total cpu time spent up to now is       13.4 secs

     total energy              =   -1226.32482923 Ry
     estimated scf accuracy    <       2.74010152 Ry

     iteration #  8     ecut=    30.00 Ry     beta= 0.70
     Davidson diagonalization with overlap

---- Real-time Memory Report at c_bands before calling an iterative solver
           412 MiB given to the printing process from OS
             0 MiB allocation reported by mallinfo(arena+hblkhd)
        127406 MiB available memory on the node where the printing process lives
------------------
     ethr =  2.80E-03,  avg # of iterations =  1.0

     negative rho (up, down):  1.620E-03 0.000E+00

     total cpu time spent up to now is       14.0 secs

     total energy              =   -1226.25197487 Ry
     estimated scf accuracy    <       1.98296796 Ry

     iteration #  9     ecut=    30.00 Ry     beta= 0.70
     Davidson diagonalization with overlap

---- Real-time Memory Report at c_bands before calling an iterative solver
           412 MiB given to the printing process from OS
             0 MiB allocation reported by mallinfo(arena+hblkhd)
        127404 MiB available memory on the node where the printing process lives
------------------
     ethr =  2.02E-03,  avg # of iterations =  1.0

     negative rho (up, down):  1.729E-03 0.000E+00

     total cpu time spent up to now is       14.5 secs

     total energy              =   -1226.27478978 Ry
     estimated scf accuracy    <       0.65536262 Ry

     iteration # 10     ecut=    30.00 Ry     beta= 0.70
     Davidson diagonalization with overlap

---- Real-time Memory Report at c_bands before calling an iterative solver
           412 MiB given to the printing process from OS
             0 MiB allocation reported by mallinfo(arena+hblkhd)
        127399 MiB available memory on the node where the printing process lives
------------------
     ethr =  6.69E-04,  avg # of iterations =  1.0

     negative rho (up, down):  2.403E-03 0.000E+00

     total cpu time spent up to now is       15.1 secs

     total energy              =   -1226.16971384 Ry
     estimated scf accuracy    <       1.34665645 Ry

     iteration # 11     ecut=    30.00 Ry     beta= 0.70
     Davidson diagonalization with overlap

---- Real-time Memory Report at c_bands before calling an iterative solver
           412 MiB given to the printing process from OS
             0 MiB allocation reported by mallinfo(arena+hblkhd)
        127406 MiB available memory on the node where the printing process lives
------------------
     ethr =  6.69E-04,  avg # of iterations =  1.0

     negative rho (up, down):  2.465E-03 0.000E+00

     total cpu time spent up to now is       15.7 secs

     total energy              =   -1226.22728730 Ry
     estimated scf accuracy    <       0.28463684 Ry

     iteration # 12     ecut=    30.00 Ry     beta= 0.70
     Davidson diagonalization with overlap

---- Real-time Memory Report at c_bands before calling an iterative solver
           412 MiB given to the printing process from OS
             0 MiB allocation reported by mallinfo(arena+hblkhd)
        127398 MiB available memory on the node where the printing process lives
------------------
     ethr =  2.90E-04,  avg # of iterations =  1.0

     negative rho (up, down):  2.459E-03 0.000E+00

     total cpu time spent up to now is       16.3 secs

     total energy              =   -1226.23604397 Ry
     estimated scf accuracy    <       0.10536434 Ry

     iteration # 13     ecut=    30.00 Ry     beta= 0.70
     Davidson diagonalization with overlap

---- Real-time Memory Report at c_bands before calling an iterative solver
           412 MiB given to the printing process from OS
             0 MiB allocation reported by mallinfo(arena+hblkhd)
        127402 MiB available memory on the node where the printing process lives
------------------
     ethr =  1.08E-04,  avg # of iterations =  1.0

     negative rho (up, down):  2.463E-03 0.000E+00

     total cpu time spent up to now is       16.9 secs

     total energy              =   -1226.24080433 Ry
     estimated scf accuracy    <       0.03532954 Ry

     iteration # 14     ecut=    30.00 Ry     beta= 0.70
     Davidson diagonalization with overlap

---- Real-time Memory Report at c_bands before calling an iterative solver
           412 MiB given to the printing process from OS
             0 MiB allocation reported by mallinfo(arena+hblkhd)
        127399 MiB available memory on the node where the printing process lives
------------------
     ethr =  3.61E-05,  avg # of iterations =  1.0

     negative rho (up, down):  2.468E-03 0.000E+00

     total cpu time spent up to now is       17.5 secs

     total energy              =   -1226.24141482 Ry
     estimated scf accuracy    <       0.04090460 Ry

     iteration # 15     ecut=    30.00 Ry     beta= 0.70
     Davidson diagonalization with overlap

---- Real-time Memory Report at c_bands before calling an iterative solver
           412 MiB given to the printing process from OS
             0 MiB allocation reported by mallinfo(arena+hblkhd)
        127405 MiB available memory on the node where the printing process lives
------------------
     ethr =  3.61E-05,  avg # of iterations =  1.0

     negative rho (up, down):  2.478E-03 0.000E+00

     total cpu time spent up to now is       18.0 secs

     total energy              =   -1226.24182414 Ry
     estimated scf accuracy    <       0.06496042 Ry

     iteration # 16     ecut=    30.00 Ry     beta= 0.70
     Davidson diagonalization with overlap

---- Real-time Memory Report at c_bands before calling an iterative solver
           412 MiB given to the printing process from OS
             0 MiB allocation reported by mallinfo(arena+hblkhd)
        127405 MiB available memory on the node where the printing process lives
------------------
     ethr =  3.61E-05,  avg # of iterations =  1.0

     negative rho (up, down):  2.495E-03 0.000E+00

     total cpu time spent up to now is       18.6 secs

     total energy              =   -1226.24247973 Ry
     estimated scf accuracy    <       0.02145356 Ry

     iteration # 17     ecut=    30.00 Ry     beta= 0.70
     Davidson diagonalization with overlap

---- Real-time Memory Report at c_bands before calling an iterative solver
           413 MiB given to the printing process from OS
             0 MiB allocation reported by mallinfo(arena+hblkhd)
        127401 MiB available memory on the node where the printing process lives
------------------
     ethr =  2.19E-05,  avg # of iterations =  1.0

     negative rho (up, down):  2.518E-03 0.000E+00

     total cpu time spent up to now is       20.4 secs

     total energy              =   -1226.24364950 Ry
     estimated scf accuracy    <       0.00425862 Ry

     iteration # 18     ecut=    30.00 Ry     beta= 0.70
     Davidson diagonalization with overlap

---- Real-time Memory Report at c_bands before calling an iterative solver
           413 MiB given to the printing process from OS
             0 MiB allocation reported by mallinfo(arena+hblkhd)
        127407 MiB available memory on the node where the printing process lives
------------------
     ethr =  4.35E-06,  avg # of iterations =  9.0

     negative rho (up, down):  2.518E-03 0.000E+00

     total cpu time spent up to now is       20.9 secs

     total energy              =   -1226.24168522 Ry
     estimated scf accuracy    <       0.04232180 Ry

     iteration # 19     ecut=    30.00 Ry     beta= 0.70
     Davidson diagonalization with overlap

---- Real-time Memory Report at c_bands before calling an iterative solver
           413 MiB given to the printing process from OS
             0 MiB allocation reported by mallinfo(arena+hblkhd)
        127406 MiB available memory on the node where the printing process lives
------------------
     ethr =  4.35E-06,  avg # of iterations =  1.0

     negative rho (up, down):  2.512E-03 0.000E+00

     total cpu time spent up to now is       21.6 secs

     total energy              =   -1226.24355166 Ry
     estimated scf accuracy    <       0.00353820 Ry

     iteration # 20     ecut=    30.00 Ry     beta= 0.70
     Davidson diagonalization with overlap

---- Real-time Memory Report at c_bands before calling an iterative solver
           413 MiB given to the printing process from OS
             0 MiB allocation reported by mallinfo(arena+hblkhd)
        127402 MiB available memory on the node where the printing process lives
------------------
     ethr =  3.61E-06,  avg # of iterations =  1.0

     negative rho (up, down):  2.513E-03 0.000E+00

     total cpu time spent up to now is       22.1 secs

     total energy              =   -1226.24393883 Ry
     estimated scf accuracy    <       0.00412646 Ry

     iteration # 21     ecut=    30.00 Ry     beta= 0.70
     Davidson diagonalization with overlap

---- Real-time Memory Report at c_bands before calling an iterative solver
           413 MiB given to the printing process from OS
             0 MiB allocation reported by mallinfo(arena+hblkhd)
        127408 MiB available memory on the node where the printing process lives
------------------
     ethr =  3.61E-06,  avg # of iterations =  1.0

     negative rho (up, down):  2.512E-03 0.000E+00

     total cpu time spent up to now is       22.7 secs

     total energy              =   -1226.24412771 Ry
     estimated scf accuracy    <       0.00018155 Ry

     iteration # 22     ecut=    30.00 Ry     beta= 0.70
     Davidson diagonalization with overlap

---- Real-time Memory Report at c_bands before calling an iterative solver
           413 MiB given to the printing process from OS
             0 MiB allocation reported by mallinfo(arena+hblkhd)
        127400 MiB available memory on the node where the printing process lives
------------------
     ethr =  1.85E-07,  avg # of iterations =  4.0

     negative rho (up, down):  2.512E-03 0.000E+00

     total cpu time spent up to now is       23.3 secs

     total energy              =   -1226.24414419 Ry
     estimated scf accuracy    <       0.00013411 Ry

     iteration # 23     ecut=    30.00 Ry     beta= 0.70
     Davidson diagonalization with overlap

---- Real-time Memory Report at c_bands before calling an iterative solver
           413 MiB given to the printing process from OS
             0 MiB allocation reported by mallinfo(arena+hblkhd)
        127408 MiB available memory on the node where the printing process lives
------------------
     ethr =  1.37E-07,  avg # of iterations =  1.0

     negative rho (up, down):  2.513E-03 0.000E+00

     total cpu time spent up to now is       23.9 secs

     total energy              =   -1226.24414409 Ry
     estimated scf accuracy    <       0.00007787 Ry

     iteration # 24     ecut=    30.00 Ry     beta= 0.70
     Davidson diagonalization with overlap

---- Real-time Memory Report at c_bands before calling an iterative solver
           413 MiB given to the printing process from OS
             0 MiB allocation reported by mallinfo(arena+hblkhd)
        127404 MiB available memory on the node where the printing process lives
------------------
     ethr =  7.95E-08,  avg # of iterations =  1.0

     negative rho (up, down):  2.513E-03 0.000E+00

     total cpu time spent up to now is       24.4 secs

     total energy              =   -1226.24414433 Ry
     estimated scf accuracy    <       0.00009835 Ry

     iteration # 25     ecut=    30.00 Ry     beta= 0.70
     Davidson diagonalization with overlap

---- Real-time Memory Report at c_bands before calling an iterative solver
           413 MiB given to the printing process from OS
             0 MiB allocation reported by mallinfo(arena+hblkhd)
        127407 MiB available memory on the node where the printing process lives
------------------
     ethr =  7.95E-08,  avg # of iterations =  1.0

     negative rho (up, down):  2.512E-03 0.000E+00

     total cpu time spent up to now is       25.0 secs

     total energy              =   -1226.24414963 Ry
     estimated scf accuracy    <       0.00000320 Ry

     iteration # 26     ecut=    30.00 Ry     beta= 0.70
     Davidson diagonalization with overlap

---- Real-time Memory Report at c_bands before calling an iterative solver
           413 MiB given to the printing process from OS
             0 MiB allocation reported by mallinfo(arena+hblkhd)
        127410 MiB available memory on the node where the printing process lives
------------------
     ethr =  3.27E-09,  avg # of iterations =  1.0

     negative rho (up, down):  2.513E-03 0.000E+00

     total cpu time spent up to now is       25.6 secs

     End of self-consistent calculation

          k = 0.0000 0.0000 0.0000 (   948 PWs)   bands (ev):

   -92.2799 -92.1664 -54.4108 -54.3172 -52.6628 -52.6103 -52.5647 -52.5566
   -52.5331 -52.4089 -28.4191 -28.3674 -28.2382 -28.2290 -28.0037 -27.9631
    -8.9388  -7.5623  -7.5513  -7.4527  -7.4015  -7.3345   3.9144   4.8632
     4.8810   4.9077   5.1288   5.1421   5.7370   5.8329   6.0176   6.3231
     6.3795   6.6586   7.3289   7.5664   7.6370   8.2410   8.2948   8.3027
     9.8669   9.8940   9.9436  10.1832  10.2248  10.3321  10.6580  10.7454
    11.2074  11.2102  11.7423  12.1403  12.2481  12.2991  12.5031  12.5303
    13.9955  14.1501  14.9469

     occupation numbers 
     1.0000   1.0000   1.0000   1.0000   1.0000   1.0000   1.0000   1.0000
     1.0000   1.0000   1.0000   1.0000   1.0000   1.0000   1.0000   1.0000
     1.0000   1.0000   1.0000   1.0000   1.0000   1.0000   1.0000   1.0000
     1.0000   1.0000   1.0000   1.0000   1.0000   1.0000   1.0000   1.0000
     1.0000   1.0000   1.0000   1.0000   1.0000   1.0000   1.0000   1.0000
     1.0000   1.0000   1.0000   1.0000   1.0000   1.0000   1.0000   1.0000
     0.5866   0.4134  -0.0000  -0.0000  -0.0000  -0.0000  -0.0000  -0.0000
    -0.0000  -0.0000  -0.0000

     the Fermi energy is    11.2088 ev

!    total energy              =   -1226.24414973 Ry
     estimated scf accuracy    <       0.00000030 Ry
     smearing contrib. (-TS)   =      -0.00054643 Ry
     internal energy E=F+TS    =   -1226.24360330 Ry

     The total energy is F=E-TS. E is the sum of the following terms:
     one-electron contribution =    -674.67103923 Ry
     hartree contribution      =     387.24494617 Ry
     xc contribution           =    -154.29963782 Ry
     ewald contribution        =    -727.36754401 Ry
     one-center paw contrib.   =     -57.15032841 Ry
      -> PAW hartree energy AE =     175.28507299 Ry
      -> PAW hartree energy PS =    -174.68129888 Ry
      -> PAW xc energy AE      =    -102.61916929 Ry
      -> PAW xc energy PS      =      44.86506677 Ry
      -> total E_H with PAW    =     387.84872028 Ry
      -> total E_XC with PAW   =    -212.05374034 Ry

     convergence has been achieved in  26 iterations

     negative rho (up, down):  2.513E-03 0.000E+00

     Forces acting on atoms (cartesian axes, Ry/au):

     atom    1 type  1   force =    -0.00269120    0.06065936    0.02534914
     atom    2 type  1   force =    -0.00119119   -0.04300825   -0.00498300
     atom    3 type  2   force =    -0.00359120    0.01356132    0.00977969
     atom    4 type  2   force =    -0.00061682   -0.05028872   -0.01089378
     atom    5 type  3   force =    -0.02332497    0.00218012   -0.00114765
     atom    6 type  3   force =    -0.00168877    0.03292167   -0.10550600
     atom    7 type  3   force =    -0.09515888   -0.01554496    0.04607231
     atom    8 type  3   force =     0.01614657    0.00035683    0.02287355
     atom    9 type  3   force =     0.02154597    0.00660035   -0.01847866
     atom   10 type  3   force =     0.09057049   -0.00743771    0.03693441
     The non-local contrib.  to forces
     atom    1 type  1   force =     0.00523185   -0.05393476   -0.01825120
     atom    2 type  1   force =    -0.00497697    0.02797607    0.01103547
     atom    3 type  2   force =    -0.00854756   -0.07744831   -0.00858603
     atom    4 type  2   force =     0.02553193   -0.17740627   -0.06241410
     atom    5 type  3   force =     0.04940353   -0.32225240   -0.08730236
     atom    6 type  3   force =    -0.05448361    0.20575057   -0.00208890
     atom    7 type  3   force =    -0.08855046    0.06421335    0.10158033
     atom    8 type  3   force =     0.02164127   -0.22884632   -0.11298396
     atom    9 type  3   force =    -0.06413095   -0.24607556   -0.09948524
     atom   10 type  3   force =     0.15040499    0.07043985    0.04295541
     The ionic contribution  to forces
     atom    1 type  1   force =    -0.44204444    5.23825206    2.19166330
     atom    2 type  1   force =     0.44133316   -4.40574228   -1.31763400
     atom    3 type  2   force =     0.05486135  -11.18362249   -3.32715788
     atom    4 type  2   force =    -0.02094368    4.42323123    1.16758164
     atom    5 type  3   force =    -0.81795751   -0.31715976    0.98439354
     atom    6 type  3   force =     0.52654574    3.43605818   -3.89970179
     atom    7 type  3   force =    -3.51288417    1.85573741    2.39638516
     atom    8 type  3   force =     1.14216567   -0.71289864   -0.07717582
     atom    9 type  3   force =    -0.01767757    0.05454065   -0.87787770
     atom   10 type  3   force =     2.64660145    1.61160363    2.75952356
     The local contribution  to forces
     atom    1 type  1   force =     0.43436002   -5.12057556   -2.14707266
     atom    2 type  1   force =    -0.43773142    4.33518441    1.30040421
     atom    3 type  2   force =    -0.05076877   11.27005265    3.34394932
     atom    4 type  2   force =    -0.00404077   -4.29505921   -1.11604316
     atom    5 type  3   force =     0.74451919    0.63966961   -0.89999413
     atom    6 type  3   force =    -0.47335726   -3.60726501    3.79556682
     atom    7 type  3   force =     3.50482605   -1.93541501   -2.45176278
     atom    8 type  3   force =    -1.14786682    0.94024827    0.21372449
     atom    9 type  3   force =     0.10461503    0.19680442    0.95796838
     atom   10 type  3   force =    -2.70542125   -1.68970357   -2.76455102
     The core correction contribution to forces
     atom    1 type  1   force =    -0.00051652   -0.00243338   -0.00030522
     atom    2 type  1   force =     0.00048232    0.00026110    0.00123779
     atom    3 type  2   force =     0.00042936    0.00397892    0.00110530
     atom    4 type  2   force =    -0.00080522   -0.00169245   -0.00014233
     atom    5 type  3   force =     0.00063313    0.00214787    0.00166972
     atom    6 type  3   force =    -0.00026896   -0.00160654    0.00056379
     atom    7 type  3   force =     0.00131952   -0.00015474   -0.00011654
     atom    8 type  3   force =     0.00010305    0.00206312   -0.00049901
     atom    9 type  3   force =    -0.00106168    0.00145511    0.00106870
     atom   10 type  3   force =    -0.00096696    0.00024892   -0.00083592
     The Hubbard contrib.    to forces
     atom    1 type  1   force =     0.00000000    0.00000000    0.00000000
     atom    2 type  1   force =     0.00000000    0.00000000    0.00000000
     atom    3 type  2   force =     0.00000000    0.00000000    0.00000000
     atom    4 type  2   force =     0.00000000    0.00000000    0.00000000
     atom    5 type  3   force =     0.00000000    0.00000000    0.00000000
     atom    6 type  3   force =     0.00000000    0.00000000    0.00000000
     atom    7 type  3   force =     0.00000000    0.00000000    0.00000000
     atom    8 type  3   force =     0.00000000    0.00000000    0.00000000
     atom    9 type  3   force =     0.00000000    0.00000000    0.00000000
     atom   10 type  3   force =     0.00000000    0.00000000    0.00000000
     The SCF correction term to forces
     atom    1 type  1   force =     0.00028391   -0.00058192   -0.00065746
     atom    2 type  1   force =    -0.00029225   -0.00062047    0.00000114
     atom    3 type  2   force =     0.00044046    0.00066762    0.00049660
     atom    4 type  2   force =    -0.00035304    0.00070505    0.00015178
     atom    5 type  3   force =     0.00008271   -0.00015812    0.00011319
     atom    6 type  3   force =    -0.00011866    0.00005155    0.00018169
     atom    7 type  3   force =     0.00013621    0.00014111    0.00001375
     atom    8 type  3   force =     0.00010943   -0.00014253   -0.00016454
     atom    9 type  3   force =    -0.00019284   -0.00005719   -0.00012518
     atom   10 type  3   force =    -0.00004173    0.00004053   -0.00013002

     Total force =     0.211162     Total SCF correction =     0.001767


     Computing stress (Cartesian axis) and pressure


     negative rho (up, down):  2.513E-03 0.000E+00
          total   stress  (Ry/bohr**3)                   (kbar)     P=    -1065.39
  -0.00696238  -0.00006027   0.00002558        -1024.20       -8.87        3.76
  -0.00006027  -0.00772779   0.00006246           -8.87    -1136.80        9.19
   0.00002558   0.00006246  -0.00703693            3.76        9.19    -1035.17

     kinetic stress (kbar)  38263.92    -47.34    -30.92
                              -47.34  38017.33    -49.06
                              -30.92    -49.06  38198.27

     local   stress (kbar) -15437.96   -558.50   -274.98
                             -558.50  -8495.38   1739.19
                             -274.98   1739.19 -14317.81

     nonloc. stress (kbar)   7940.11    -30.62     -0.69
                              -30.62   7865.46    -10.15
                               -0.69    -10.15   7924.39

     hartree stress (kbar)  28484.00    205.99    137.55
                              205.99  25749.34   -721.40
                              137.55   -721.40  28039.85

     exc-cor stress (kbar)  -7891.00      0.17     -0.62
                                0.17  -7903.29     -2.69
                               -0.62     -2.69  -7893.18

     corecor stress (kbar)  -2403.18      0.61      0.07
                                0.61  -2399.41      1.29
                                0.07      1.29  -2402.74

     ewald   stress (kbar) -49980.09    420.83    173.35
                              420.83 -53970.85   -947.99
                              173.35   -947.99 -50583.94

     hubbard stress (kbar)      0.00      0.00      0.00
                                0.00      0.00      0.00
                                0.00      0.00      0.00

     DFT-D   stress (kbar)      0.00      0.00      0.00
                                0.00      0.00      0.00
                                0.00      0.00      0.00

     XDM     stress (kbar)      0.00      0.00      0.00
                                0.00      0.00      0.00
                                0.00      0.00      0.00

     dft-nl  stress (kbar)      0.00      0.00      0.00
                                0.00      0.00      0.00
                                0.00      0.00      0.00

     TS-vdW  stress (kbar)      0.00      0.00      0.00
                                0.00      0.00      0.00
                                0.00      0.00      0.00


                                0.00      0.00      0.00
                                0.00      0.00      0.00


                                0.00      0.00      0.00


     Writing all to output data dir new_calculations/myprefix.save/
 
     init_run     :    159.31s CPU      8.46s WALL (       1 calls)
     electrons    :    518.61s CPU     16.90s WALL (       1 calls)
     forces       :      7.25s CPU      0.24s WALL (       1 calls)
     stress       :     11.02s CPU      0.36s WALL (       1 calls)

     Called by init_run:
     wfcinit      :     29.06s CPU      0.97s WALL (       1 calls)
     wfcinit:atom :      0.03s CPU      0.00s WALL (       1 calls)
     wfcinit:wfcr :     28.91s CPU      0.97s WALL (       1 calls)
     potinit      :     31.11s CPU      1.13s WALL (       1 calls)
     hinit0       :     92.67s CPU      6.06s WALL (       1 calls)

     Called by electrons:
     c_bands      :    272.87s CPU      8.73s WALL (      26 calls)
     sum_band     :     91.54s CPU      3.00s WALL (      26 calls)
     v_of_rho     :     10.46s CPU      0.36s WALL (      27 calls)
     v_h          :      0.93s CPU      0.03s WALL (      27 calls)
     v_xc         :     10.10s CPU      0.34s WALL (      29 calls)
     newd         :     94.15s CPU      3.18s WALL (      27 calls)
     PAW_pot      :     48.89s CPU      1.64s WALL (      27 calls)
     mix_rho      :      3.73s CPU      0.12s WALL (      26 calls)

     Called by c_bands:
     init_us_2    :      0.59s CPU      0.02s WALL (      53 calls)
     init_us_2:cp :      0.51s CPU      0.02s WALL (      53 calls)
     regterg      :    270.48s CPU      8.65s WALL (      26 calls)

     Called by sum_band:
     sum_band:wei :      0.08s CPU      0.00s WALL (      26 calls)
     sum_band:loo :     50.36s CPU      1.60s WALL (      26 calls)
     sum_band:buf :      0.02s CPU      0.00s WALL (      26 calls)
     sum_band:ini :      0.32s CPU      0.01s WALL (      26 calls)
     sum_band:cal :      0.20s CPU      0.01s WALL (      26 calls)
     sum_band:bec :      0.10s CPU      0.00s WALL (      26 calls)
     addusdens    :     39.28s CPU      1.34s WALL (      26 calls)
     addusd:skk   :      0.17s CPU      0.01s WALL (      78 calls)
     addusd:dgemm :      2.40s CPU      0.13s WALL (      78 calls)
     addusd:qvan2 :     29.51s CPU      0.95s WALL (      78 calls)

     Called by *egterg:
     rdiaghg      :      8.13s CPU      0.27s WALL (      74 calls)
     regterg:over :      0.27s CPU      0.01s WALL (      48 calls)
     regterg:upda :      0.44s CPU      0.01s WALL (      48 calls)
     regterg:last :      0.55s CPU      0.02s WALL (      34 calls)
     h_psi        :    285.61s CPU      9.16s WALL (      75 calls)
     s_psi        :      0.17s CPU      0.01s WALL (      75 calls)
     g_psi        :      0.06s CPU      0.00s WALL (      48 calls)

     Called by h_psi:
     h_psi:calbec :      1.70s CPU      0.06s WALL (      75 calls)
     vloc_psi     :    283.22s CPU      9.08s WALL (      75 calls)
     add_vuspsi   :      0.26s CPU      0.01s WALL (      75 calls)

     General routines
     calbec       :      1.76s CPU      0.06s WALL (     106 calls)
     fft          :     81.89s CPU      4.47s WALL (     315 calls)
     ffts         :     27.28s CPU      0.99s WALL (      53 calls)
     fftw         :    308.23s CPU      9.84s WALL (    4200 calls)
     interpolate  :     28.10s CPU      1.02s WALL (      27 calls)
 
     Parallel routines

     PAW routines
     PAW_pot      :     48.89s CPU      1.64s WALL (      27 calls)
 
     PWSCF        :  11m40.97s CPU     26.37s WALL

 
   This run was terminated on:   9: 6: 4  20May2023            

=------------------------------------------------------------------------------=
   JOB DONE.
=------------------------------------------------------------------------------=
