
     Program PWSCF v.7.0 starts on 20May2023 at  9: 6:16 

     This program is part of the open-source Quantum ESPRESSO suite
     for quantum simulation of materials; please cite
         "P. Giannozzi et al., J. Phys.:Condens. Matter 21 395502 (2009);
         "P. Giannozzi et al., J. Phys.:Condens. Matter 29 465901 (2017);
         "P. Giannozzi et al., J. Chem. Phys. 152 154105 (2020);
          URL http://www.quantum-espresso.org", 
     in publications or presentations arising from this work. More details at
     http://www.quantum-espresso.org/quote

     Parallel version (MPI & OpenMP), running on      32 processor cores
     Number of MPI processes:                 1
     Threads/MPI process:                    32

     MPI processes distributed on     1 nodes
     28633 MiB available memory on the printing compute node when the environment starts
 
     Reading input from espresso_17203.pwi
Warning: card &CELL ignored
Warning: card / ignored

     Current dimensions of program PWSCF are:
     Max number of different atomic species (ntypx) = 10
     Max number of k-points (npk) =  40000
     Max angular momentum in pseudopotentials (lmaxx) =  4

     gamma-point specific algorithms are used
     Message from routine setup:
     using ibrav=0 with symmetry is DISCOURAGED, use correct ibrav instead

     Subspace diagonalization in iterative solution of the eigenvalue problem:
     a serial algorithm will be used

 
     G-vector sticks info
     --------------------
     sticks:   dense  smooth     PW     G-vecs:    dense   smooth      PW
     Sum        6765    3375    851               283855   100355   12543
 
     Using Slab Decomposition
 


     bravais-lattice index     =            0
     lattice parameter (alat)  =      26.9240  a.u.
     unit-cell volume          =    4520.4410 (a.u.)^3
     number of atoms/cell      =           20
     number of atomic types    =            2
     number of electrons       =       272.00
     number of Kohn-Sham states=          163
     kinetic-energy cutoff     =      30.0000  Ry
     charge density cutoff     =     240.0000  Ry
     scf convergence threshold =      1.0E-06
     mixing beta               =       0.7000
     number of iterations used =            8  plain     mixing
     Exchange-correlation= SLA  PW   PBE  PBE
                           (   1   4   3   4   0   0   0)

     celldm(1)=  26.923956  celldm(2)=   0.000000  celldm(3)=   0.000000
     celldm(4)=   0.000000  celldm(5)=   0.000000  celldm(6)=   0.000000

     crystal axes: (cart. coord. in units of alat)
               a(1) = (   1.000000   0.000000   0.000000 )  
               a(2) = (   0.819621   0.488421   0.000000 )  
               a(3) = (   0.180379  -0.116967   0.474209 )  

     reciprocal axes: (cart. coord. in units 2 pi/alat)
               b(1) = (  1.000000 -1.678103 -0.794295 )  
               b(2) = (  0.000000  2.047413  0.505009 )  
               b(3) = (  0.000000  0.000000  2.108776 )  


     PseudoPot. # 1 for Lu read from file:
     /home/pragov/projects/rrg-bengioy-ad/pragov/crystal_structure_design/SSSP/Lu.GGA-PBE-paw-v1.0.UPF
     MD5 check sum: 9ceca61ee0c17e9380a83635bfffa61d
     Pseudo is Projector augmented-wave + core cor, Zval = 25.0
     Generated using ATOMPAW code
     Shape of augmentation charge: BESSEL
     Using radial grid of 1118 points,  8 beta functions with: 
                l(1) =   0
                l(2) =   0
                l(3) =   1
                l(4) =   1
                l(5) =   2
                l(6) =   2
                l(7) =   3
                l(8) =   3
     Q(r) pseudized with 0 coefficients 


     PseudoPot. # 2 for Te read from file:
     /home/pragov/projects/rrg-bengioy-ad/pragov/crystal_structure_design/SSSP/Te_pbe_v1.uspp.F.UPF
     MD5 check sum: c319670d6894cc26e93307826a071b75
     Pseudo is Ultrasoft + core correction, Zval =  6.0
     Generated by new atomic code, or converted to UPF format
     Using radial grid of  891 points,  5 beta functions with: 
                l(1) =   0
                l(2) =   0
                l(3) =   1
                l(4) =   1
                l(5) =   2
     Q(r) pseudized with  6 coefficients,  rinner =    1.800   1.800   1.800
                                                       1.800   1.800

     atomic species   valence    mass     pseudopotential
        Lu            25.00   174.96680     Lu( 1.00)
        Te             6.00   127.60000     Te( 1.00)

      2 Sym. Ops., with inversion, found ( 1 have fractional translation)


                                    s                        frac. trans.

      isym =  1     identity                                     

 cryst.   s( 1) = (     1          0          0      )
                  (     0          1          0      )
                  (     0          0          1      )

 cart.    s( 1) = (  1.0000000 -0.0000000  0.0000000 )
                  (  0.0000000  1.0000000  0.0000000 )
                  (  0.0000000  0.0000000  1.0000000 )


      isym =  2     inversion                                    

 cryst.   s( 2) = (    -1          0          0      )    f =( -0.2500000 )
                  (     0         -1          0      )       ( -0.2500000 )
                  (     0          0         -1      )       ( -0.2500000 )

 cart.    s( 2) = ( -1.0000000  0.0000000 -0.0000000 )    f =( -0.5000000 )
                  (  0.0000000 -1.0000000 -0.0000000 )       ( -0.0928635 )
                  (  0.0000000  0.0000000 -1.0000000 )       ( -0.1185522 )


   Cartesian axes

     site n.     atom                  positions (alat units)
         1           Lu  tau(   1) = (   0.6357473   0.1429964   0.0792825  )
         2           Lu  tau(   2) = (   0.3642527   0.0427307   0.1578219  )
         3           Lu  tau(   3) = (   1.6838739   0.4382884   0.0392697  )
         4           Lu  tau(   4) = (   0.3161261  -0.0668342   0.4349391  )
         5           Lu  tau(   5) = (   0.0902254  -0.0584702   0.2370940  )
         6           Lu  tau(   6) = (   0.9097746   0.2441973   0.0000104  )
         7           Lu  tau(   7) = (   0.5901533   0.0343667   0.3556671  )
         8           Lu  tau(   8) = (   1.4098467   0.3370875   0.1185418  )
         9           Te  tau(   9) = (   1.5000000   0.1868704   0.2385640  )
        10           Te  tau(  10) = (   1.5000000   0.3703109   0.4727492  )
        11           Te  tau(  11) = (   1.0000000   0.2774473   0.3541970  )
        12           Te  tau(  12) = (   1.0000000   0.0940069   0.1200118  )
        13           Te  tau(  13) = (   0.9541183  -0.0153313   0.3949225  )
        14           Te  tau(  14) = (   1.2258867   0.0847185   0.3158994  )
        15           Te  tau(  15) = (   1.0458817   0.3871024   0.0796908  )
        16           Te  tau(  16) = (   0.7741133   0.2864188   0.1579049  )
        17           Te  tau(  17) = (   0.7262604  -0.0087722   0.1978385  )
        18           Te  tau(  18) = (   1.2741133   0.3795992   0.2768616  )
        19           Te  tau(  19) = (   1.2737396   0.1941824   0.0388614  )
        20           Te  tau(  20) = (   0.7258867   0.1778989   0.4348561  )

   Crystallographic axes

     site n.     atom                  positions (cryst. coord.)
         1           Lu  tau(   1) = (  0.3328110  0.3328110  0.1671890  )
         2           Lu  tau(   2) = (  0.1671890  0.1671890  0.3328110  )
         3           Lu  tau(   3) = (  0.9171890  0.9171890  0.0828110  )
         4           Lu  tau(   4) = (  0.0828110  0.0828110  0.9171890  )
         5           Lu  tau(   5) = (  0.0000220  0.0000220  0.4999780  )
         6           Lu  tau(   6) = (  0.4999780  0.4999780  0.0000220  )
         7           Lu  tau(   7) = (  0.2499780  0.2499780  0.7500220  )
         8           Lu  tau(   8) = (  0.7500220  0.7500220  0.2499780  )
         9           Te  tau(   9) = (  0.9969220  0.5030780  0.5030780  )
        10           Te  tau(  10) = (  0.5030780  0.9969220  0.9969220  )
        11           Te  tau(  11) = (  0.2530780  0.7469220  0.7469220  )
        12           Te  tau(  12) = (  0.7469220  0.2530780  0.2530780  )
        13           Te  tau(  13) = (  0.6661610  0.1680500  0.8328030  )
        14           Te  tau(  14) = (  0.8328030  0.3329860  0.6661610  )
        15           Te  tau(  15) = (  0.3329860  0.8328030  0.1680500  )
        16           Te  tau(  16) = (  0.1680500  0.6661610  0.3329860  )
        17           Te  tau(  17) = (  0.5838390  0.0819500  0.4171970  )
        18           Te  tau(  18) = (  0.4171970  0.9170140  0.5838390  )
        19           Te  tau(  19) = (  0.9170140  0.4171970  0.0819500  )
        20           Te  tau(  20) = (  0.0819500  0.5838390  0.9170140  )

     number of k points=     1  Methfessel-Paxton smearing, width (Ry)=  0.0010
                       cart. coord. in units 2pi/alat
        k(    1) = (   0.0000000   0.0000000   0.0000000), wk =   2.0000000

                       cryst. coord.
        k(    1) = (   0.0000000   0.0000000   0.0000000), wk =   2.0000000

     Dense  grid:   141928 G-vectors     FFT dimensions: ( 144, 128,  72)

     Smooth grid:    50178 G-vectors     FFT dimensions: (  96,  96,  60)

     Dynamical RAM for                 wfc:      15.60 MB

     Dynamical RAM for     wfc (w. buffer):      15.60 MB

     Dynamical RAM for           str. fact:       4.33 MB

     Dynamical RAM for           local pot:       0.00 MB

     Dynamical RAM for          nlocal pot:      39.43 MB

     Dynamical RAM for                qrad:       5.97 MB

     Dynamical RAM for          rho,v,vnew:      36.87 MB

     Dynamical RAM for               rhoin:      12.29 MB

     Dynamical RAM for            rho*nmix:      34.65 MB

     Dynamical RAM for           G-vectors:       8.50 MB

     Dynamical RAM for          h,s,v(r/c):       2.43 MB

     Dynamical RAM for          <psi|beta>:       0.51 MB

     Dynamical RAM for                 psi:      31.20 MB

     Dynamical RAM for                hpsi:      31.20 MB

     Dynamical RAM for                spsi:      31.20 MB

     Dynamical RAM for      wfcinit/wfcrot:      60.31 MB

     Dynamical RAM for           addusdens:    1227.92 MB

     Dynamical RAM for          addusforce:    1276.80 MB

     Dynamical RAM for         addusstress:    1260.41 MB

     Estimated static dynamical RAM per process >     180.12 MB

     Estimated max dynamical RAM per process >       1.46 GB

     Initial potential from superposition of free atoms

     starting charge     271.9672, renormalised to     272.0000
     Starting wfcs are  304 randomized atomic wfcs
     Checking if some PAW data can be deallocated... 

     total cpu time spent up to now is       17.7 secs

     Self-consistent Calculation

     iteration #  1     ecut=    30.00 Ry     beta= 0.70
     Davidson diagonalization with overlap

---- Real-time Memory Report at c_bands before calling an iterative solver
          1634 MiB given to the printing process from OS
             0 MiB allocation reported by mallinfo(arena+hblkhd)
         28123 MiB available memory on the node where the printing process lives
------------------
     ethr =  1.00E-02,  avg # of iterations =  7.0

     Threshold (ethr) on eigenvalues was too large:
     Diagonalizing with lowered threshold

     Davidson diagonalization with overlap

---- Real-time Memory Report at c_bands before calling an iterative solver
          1917 MiB given to the printing process from OS
             0 MiB allocation reported by mallinfo(arena+hblkhd)
         28099 MiB available memory on the node where the printing process lives
------------------
     ethr =  1.71E-04,  avg # of iterations =  7.0

     negative rho (up, down):  1.334E-01 0.000E+00

     total cpu time spent up to now is       33.8 secs

     total energy              =   -8970.14866870 Ry
     estimated scf accuracy    <       0.47657296 Ry

     iteration #  2     ecut=    30.00 Ry     beta= 0.70
     Davidson diagonalization with overlap

---- Real-time Memory Report at c_bands before calling an iterative solver
          2014 MiB given to the printing process from OS
             0 MiB allocation reported by mallinfo(arena+hblkhd)
         28086 MiB available memory on the node where the printing process lives
------------------
     ethr =  1.75E-04,  avg # of iterations =  6.0

     negative rho (up, down):  2.313E-01 0.000E+00

     total cpu time spent up to now is       43.7 secs

     total energy              =   -8970.16363343 Ry
     estimated scf accuracy    <       0.22909004 Ry

     iteration #  3     ecut=    30.00 Ry     beta= 0.70
     Davidson diagonalization with overlap

---- Real-time Memory Report at c_bands before calling an iterative solver
          2014 MiB given to the printing process from OS
             0 MiB allocation reported by mallinfo(arena+hblkhd)
         28071 MiB available memory on the node where the printing process lives
------------------
     ethr =  8.42E-05,  avg # of iterations = 16.0

     negative rho (up, down):  2.649E-01 0.000E+00

     total cpu time spent up to now is       54.8 secs

     total energy              =   -8970.12364693 Ry
     estimated scf accuracy    <       1.47016416 Ry

     iteration #  4     ecut=    30.00 Ry     beta= 0.70
     Davidson diagonalization with overlap

---- Real-time Memory Report at c_bands before calling an iterative solver
          2014 MiB given to the printing process from OS
             0 MiB allocation reported by mallinfo(arena+hblkhd)
         28063 MiB available memory on the node where the printing process lives
------------------
     ethr =  8.42E-05,  avg # of iterations = 14.0

     negative rho (up, down):  3.185E-01 0.000E+00

     total cpu time spent up to now is       65.1 secs

     total energy              =   -8970.23254845 Ry
     estimated scf accuracy    <       0.14055655 Ry

     iteration #  5     ecut=    30.00 Ry     beta= 0.70
     Davidson diagonalization with overlap

---- Real-time Memory Report at c_bands before calling an iterative solver
          2014 MiB given to the printing process from OS
             0 MiB allocation reported by mallinfo(arena+hblkhd)
         28065 MiB available memory on the node where the printing process lives
------------------
     ethr =  5.17E-05,  avg # of iterations = 12.0

     negative rho (up, down):  3.356E-01 0.000E+00

     total cpu time spent up to now is       74.7 secs

     total energy              =   -8970.24095411 Ry
     estimated scf accuracy    <       0.14729465 Ry

     iteration #  6     ecut=    30.00 Ry     beta= 0.70
     Davidson diagonalization with overlap

---- Real-time Memory Report at c_bands before calling an iterative solver
          2014 MiB given to the printing process from OS
             0 MiB allocation reported by mallinfo(arena+hblkhd)
         28060 MiB available memory on the node where the printing process lives
------------------
     ethr =  5.17E-05,  avg # of iterations =  3.0

     negative rho (up, down):  3.486E-01 0.000E+00

     total cpu time spent up to now is       84.4 secs

     total energy              =   -8970.25389168 Ry
     estimated scf accuracy    <       0.02455162 Ry

     iteration #  7     ecut=    30.00 Ry     beta= 0.70
     Davidson diagonalization with overlap

---- Real-time Memory Report at c_bands before calling an iterative solver
          2014 MiB given to the printing process from OS
             0 MiB allocation reported by mallinfo(arena+hblkhd)
         28041 MiB available memory on the node where the printing process lives
------------------
     ethr =  9.03E-06,  avg # of iterations = 12.0

     negative rho (up, down):  3.547E-01 0.000E+00

     total cpu time spent up to now is       93.8 secs

     total energy              =   -8970.25621943 Ry
     estimated scf accuracy    <       0.01487853 Ry

     iteration #  8     ecut=    30.00 Ry     beta= 0.70
     Davidson diagonalization with overlap

---- Real-time Memory Report at c_bands before calling an iterative solver
          2014 MiB given to the printing process from OS
             0 MiB allocation reported by mallinfo(arena+hblkhd)
         28044 MiB available memory on the node where the printing process lives
------------------
     ethr =  5.47E-06,  avg # of iterations =  2.0

     negative rho (up, down):  3.557E-01 0.000E+00

     total cpu time spent up to now is      102.3 secs

     total energy              =   -8970.25813805 Ry
     estimated scf accuracy    <       0.00524796 Ry

     iteration #  9     ecut=    30.00 Ry     beta= 0.70
     Davidson diagonalization with overlap

---- Real-time Memory Report at c_bands before calling an iterative solver
          2014 MiB given to the printing process from OS
             0 MiB allocation reported by mallinfo(arena+hblkhd)
         28044 MiB available memory on the node where the printing process lives
------------------
     ethr =  1.93E-06,  avg # of iterations = 15.0

     negative rho (up, down):  3.566E-01 0.000E+00

     total cpu time spent up to now is      111.4 secs

     total energy              =   -8970.25827629 Ry
     estimated scf accuracy    <       0.00103482 Ry

     iteration # 10     ecut=    30.00 Ry     beta= 0.70
     Davidson diagonalization with overlap

---- Real-time Memory Report at c_bands before calling an iterative solver
          2014 MiB given to the printing process from OS
             0 MiB allocation reported by mallinfo(arena+hblkhd)
         28043 MiB available memory on the node where the printing process lives
------------------
     ethr =  3.80E-07,  avg # of iterations =  2.0

     negative rho (up, down):  3.571E-01 0.000E+00

     total cpu time spent up to now is      119.9 secs

     total energy              =   -8970.25832623 Ry
     estimated scf accuracy    <       0.00007955 Ry

     iteration # 11     ecut=    30.00 Ry     beta= 0.70
     Davidson diagonalization with overlap

---- Real-time Memory Report at c_bands before calling an iterative solver
          2014 MiB given to the printing process from OS
             0 MiB allocation reported by mallinfo(arena+hblkhd)
         28040 MiB available memory on the node where the printing process lives
------------------
     ethr =  2.92E-08,  avg # of iterations =  3.0

     negative rho (up, down):  3.571E-01 0.000E+00

     total cpu time spent up to now is      128.9 secs

     total energy              =   -8970.25833716 Ry
     estimated scf accuracy    <       0.00003593 Ry

     iteration # 12     ecut=    30.00 Ry     beta= 0.70
     Davidson diagonalization with overlap

---- Real-time Memory Report at c_bands before calling an iterative solver
          2014 MiB given to the printing process from OS
             0 MiB allocation reported by mallinfo(arena+hblkhd)
         28038 MiB available memory on the node where the printing process lives
------------------
     ethr =  1.32E-08,  avg # of iterations =  2.0

     negative rho (up, down):  3.570E-01 0.000E+00

     total cpu time spent up to now is      137.5 secs

     total energy              =   -8970.25834141 Ry
     estimated scf accuracy    <       0.00000379 Ry

     iteration # 13     ecut=    30.00 Ry     beta= 0.70
     Davidson diagonalization with overlap

---- Real-time Memory Report at c_bands before calling an iterative solver
          2014 MiB given to the printing process from OS
             0 MiB allocation reported by mallinfo(arena+hblkhd)
         28039 MiB available memory on the node where the printing process lives
------------------
     ethr =  1.39E-09,  avg # of iterations =  3.0

     negative rho (up, down):  3.570E-01 0.000E+00

     total cpu time spent up to now is      146.5 secs

     total energy              =   -8970.25834207 Ry
     estimated scf accuracy    <       0.00000331 Ry

     iteration # 14     ecut=    30.00 Ry     beta= 0.70
     Davidson diagonalization with overlap

---- Real-time Memory Report at c_bands before calling an iterative solver
          2014 MiB given to the printing process from OS
             0 MiB allocation reported by mallinfo(arena+hblkhd)
         28032 MiB available memory on the node where the printing process lives
------------------
     ethr =  1.22E-09,  avg # of iterations =  2.0

     negative rho (up, down):  3.571E-01 0.000E+00

     total cpu time spent up to now is      155.0 secs

     total energy              =   -8970.25834234 Ry
     estimated scf accuracy    <       0.00000273 Ry

     iteration # 15     ecut=    30.00 Ry     beta= 0.70
     Davidson diagonalization with overlap

---- Real-time Memory Report at c_bands before calling an iterative solver
          2014 MiB given to the printing process from OS
             0 MiB allocation reported by mallinfo(arena+hblkhd)
         28030 MiB available memory on the node where the printing process lives
------------------
     ethr =  1.00E-09,  avg # of iterations =  1.0

     negative rho (up, down):  3.571E-01 0.000E+00

     total cpu time spent up to now is      163.5 secs

     End of self-consistent calculation

          k = 0.0000 0.0000 0.0000 (  6272 PWs)   bands (ev):

   -49.9603 -48.8308 -48.7420 -48.5793 -48.5615 -48.2076 -48.1198 -48.0598
   -32.1520 -23.1537 -19.5919 -19.4998 -19.4951 -19.4170 -19.3862 -19.2998
   -19.2866 -19.2782 -19.2670 -19.2574 -19.1891 -19.0712 -19.0235 -18.9481
   -18.8804 -18.8582 -18.8293 -18.8247 -18.8165 -18.7667 -18.7479 -18.7030
   -17.6180 -14.4337  -3.7705  -3.3397  -3.2017  -2.8149  -2.8052  -2.7573
    -2.7494  -2.7273  -2.7078  -2.6833  -1.8640   0.1768   2.4812   2.4831
     2.4959   2.5086   2.5125   2.5393   2.5435   2.5681   2.5759   2.5835
     2.5983   2.6030   2.6316   2.6377   2.7285   2.7336   2.7423   2.7466
     2.7481   2.7539   2.7584   2.7622   2.7656   2.7703   2.7772   2.7806
     2.7892   2.7995   3.0759   3.0785   3.0926   3.1005   3.1057   3.1407
     3.1491   3.1616   3.1712   3.1806   3.1873   3.1994   3.2142   3.2441
     3.2683   3.2713   3.2748   3.2798   3.2815   3.2832   3.2879   3.2894
     3.2926   3.2982   3.3218   3.3300   3.3445   3.3451   3.3915   3.4838
     3.6523   3.7368   4.1300   4.3988   4.4211   4.4450   4.7568   4.8005
     4.8142   5.0253   5.0673   5.1359   5.3643   5.3962   5.4531   5.4733
     5.5469   5.6143   5.7335   5.9419   5.9751   6.0489   6.1884   6.3563
     6.3713   6.3775   6.3899   6.4079   6.4907   6.9636   7.4382   7.5816
     7.6087   7.6456   8.5275   8.8459   9.6308   9.8545   9.8814   9.9491
    10.1148  10.1659  10.4021  10.4570  10.4727  10.5825  10.6578  10.6711
    10.7362  10.8783  10.8864  10.9688  11.0828  11.2351  11.2707  11.3226
    11.3624  11.4442  11.5785

     occupation numbers 
     1.0000   1.0000   1.0000   1.0000   1.0000   1.0000   1.0000   1.0000
     1.0000   1.0000   1.0000   1.0000   1.0000   1.0000   1.0000   1.0000
     1.0000   1.0000   1.0000   1.0000   1.0000   1.0000   1.0000   1.0000
     1.0000   1.0000   1.0000   1.0000   1.0000   1.0000   1.0000   1.0000
     1.0000   1.0000   1.0000   1.0000   1.0000   1.0000   1.0000   1.0000
     1.0000   1.0000   1.0000   1.0000   1.0000   1.0000   1.0000   1.0000
     1.0000   1.0000   1.0000   1.0000   1.0000   1.0000   1.0000   1.0000
     1.0000   1.0000   1.0000   1.0000   1.0000   1.0000   1.0000   1.0000
     1.0000   1.0000   1.0000   1.0000   1.0000   1.0000   1.0000   1.0000
     1.0000   1.0000   1.0000   1.0000   1.0000   1.0000   1.0000   1.0000
     1.0000   1.0000   1.0000   1.0000   1.0000   1.0000   1.0000   1.0000
     1.0000   1.0000   1.0000   1.0000   1.0000   1.0000   1.0000   1.0000
     1.0000   1.0000   1.0000   1.0000   1.0000   1.0000   1.0000   1.0000
     1.0000   1.0000   1.0000   1.0000   1.0000   1.0000   1.0000   1.0000
     1.0000   1.0000   1.0000   1.0000   1.0000   1.0000   1.0000   1.0000
     1.0000   1.0000   1.0000   1.0000   1.0000   1.0000   1.0000   1.0000
     1.0000   1.0000   1.0000   1.0000   1.0000   1.0000   1.0000   1.0250
    -0.0250  -0.0000  -0.0000  -0.0000  -0.0000  -0.0000  -0.0000  -0.0000
    -0.0000  -0.0000  -0.0000  -0.0000  -0.0000  -0.0000  -0.0000  -0.0000
    -0.0000  -0.0000  -0.0000  -0.0000  -0.0000  -0.0000  -0.0000  -0.0000
    -0.0000  -0.0000  -0.0000

     the Fermi energy is     7.5951 ev

!    total energy              =   -8970.25834237 Ry
     estimated scf accuracy    <       0.00000027 Ry
     smearing contrib. (-TS)   =       0.00020702 Ry
     internal energy E=F+TS    =   -8970.25854938 Ry

     The total energy is F=E-TS. E is the sum of the following terms:
     one-electron contribution =   -4591.50982163 Ry
     hartree contribution      =    2071.07971837 Ry
     xc contribution           =    -502.82873665 Ry
     ewald contribution        =   -2021.07942140 Ry
     one-center paw contrib.   =   -3925.92028808 Ry
      -> PAW hartree energy AE =    3892.80056313 Ry
      -> PAW hartree energy PS =   -3344.01671655 Ry
      -> PAW xc energy AE      =   -4792.86083847 Ry
      -> PAW xc energy PS      =     318.15670382 Ry
      -> total E_H with PAW    =    2619.86356495 Ry
      -> total E_XC with PAW   =   -4977.53287130 Ry

     convergence has been achieved in  15 iterations

     negative rho (up, down):  3.571E-01 0.000E+00

     Forces acting on atoms (cartesian axes, Ry/au):

     atom    1 type  1   force =    -0.01045417   -0.00228725    0.00462400
     atom    2 type  1   force =     0.00915074   -0.00066917   -0.00282038
     atom    3 type  1   force =     0.01045417    0.00228725   -0.00462400
     atom    4 type  1   force =    -0.00915074    0.00066917    0.00282038
     atom    5 type  1   force =    -0.00114985   -0.00395268   -0.00235264
     atom    6 type  1   force =     0.00534025    0.00515518    0.00203363
     atom    7 type  1   force =     0.00114985    0.00395268    0.00235264
     atom    8 type  1   force =    -0.00534025   -0.00515518   -0.00203363
     atom    9 type  2   force =     0.01681811    0.00686920   -0.03005654
     atom   10 type  2   force =    -0.01732875   -0.00873525    0.03041295
     atom   11 type  2   force =    -0.01681811   -0.00686920    0.03005654
     atom   12 type  2   force =     0.01732875    0.00873525   -0.03041295
     atom   13 type  2   force =    -0.05402530   -0.00924325    0.00679397
     atom   14 type  2   force =     0.03835225    0.02022349   -0.00912363
     atom   15 type  2   force =     0.02709979   -0.00397516    0.00014818
     atom   16 type  2   force =    -0.01828900   -0.01321542    0.00405751
     atom   17 type  2   force =     0.05402530    0.00924325   -0.00679397
     atom   18 type  2   force =    -0.03835225   -0.02022349    0.00912363
     atom   19 type  2   force =    -0.02709979    0.00397516   -0.00014818
     atom   20 type  2   force =     0.01828900    0.01321542   -0.00405751
     The non-local contrib.  to forces
     atom    1 type  1   force =    -0.00193501   -0.00353062   -0.00081930
     atom    2 type  1   force =     0.00891230    0.00711612   -0.00096968
     atom    3 type  1   force =     0.00193501    0.00353062    0.00081930
     atom    4 type  1   force =    -0.00891230   -0.00711612    0.00096968
     atom    5 type  1   force =    -0.00314366   -0.00262914    0.00030979
     atom    6 type  1   force =     0.00531868    0.00395321    0.00102958
     atom    7 type  1   force =     0.00314366    0.00262914   -0.00030979
     atom    8 type  1   force =    -0.00531868   -0.00395321   -0.00102958
     atom    9 type  2   force =     0.02742898   -0.02122629   -0.02331214
     atom   10 type  2   force =    -0.02911077    0.01754301    0.02492868
     atom   11 type  2   force =    -0.02742898    0.02122629    0.02331214
     atom   12 type  2   force =     0.02911077   -0.01754301   -0.02492868
     atom   13 type  2   force =     0.00627110   -0.00374831    0.00082233
     atom   14 type  2   force =     0.00123039   -0.04019050    0.00953917
     atom   15 type  2   force =    -0.03591804    0.02813196    0.00692671
     atom   16 type  2   force =     0.02304165    0.01002513   -0.01678653
     atom   17 type  2   force =    -0.00627110    0.00374831   -0.00082233
     atom   18 type  2   force =    -0.00123039    0.04019050   -0.00953917
     atom   19 type  2   force =     0.03591804   -0.02813196   -0.00692671
     atom   20 type  2   force =    -0.02304165   -0.01002513    0.01678653
     The ionic contribution  to forces
     atom    1 type  1   force =     7.38669953    2.72798035   -2.13686389
     atom    2 type  1   force =    -7.38669951   -2.72798033    2.13686388
     atom    3 type  1   force =    -7.38669953   -2.72798035    2.13686389
     atom    4 type  1   force =     7.38669951    2.72798033   -2.13686388
     atom    5 type  1   force =    -6.78024482   -2.50401069    1.96142543
     atom    6 type  1   force =     6.78024482    2.50401070   -1.96142543
     atom    7 type  1   force =     6.78024482    2.50401070   -1.96142543
     atom    8 type  1   force =    -6.78024482   -2.50401069    1.96142543
     atom    9 type  2   force =    -0.00000000    6.00050340    7.66041085
     atom   10 type  2   force =     0.00000001   -6.00050340   -7.66041085
     atom   11 type  2   force =     0.00000001   -6.00050340   -7.66041085
     atom   12 type  2   force =    -0.00000000    6.00050340    7.66041085
     atom   13 type  2   force =    -6.74003507    0.28275214   -6.30203300
     atom   14 type  2   force =     1.14886249    9.09981268   -1.04745687
     atom   15 type  2   force =     6.74003508   -6.18636569   -1.23468555
     atom   16 type  2   force =    -1.14886250   -3.19619913    8.58417542
     atom   17 type  2   force =     6.74003507   -0.28275214    6.30203300
     atom   18 type  2   force =    -1.14886249   -9.09981268    1.04745687
     atom   19 type  2   force =    -6.74003508    6.18636569    1.23468555
     atom   20 type  2   force =     1.14886250    3.19619913   -8.58417542
     The local contribution  to forces
     atom    1 type  1   force =    -7.38844209   -2.72096138    2.14390925
     atom    2 type  1   force =     7.38755483    2.71394097   -2.14212965
     atom    3 type  1   force =     7.40171370    2.73188960   -2.14025305
     atom    4 type  1   force =    -7.38846883   -2.72750279    2.13722920
     atom    5 type  1   force =     6.77437047    2.50126170   -1.96546866
     atom    6 type  1   force =    -6.77381090   -2.50102765    1.96457477
     atom    7 type  1   force =    -6.78785652   -2.50275227    1.96325944
     atom    8 type  1   force =     6.78905562    2.50495596   -1.96177690
     atom    9 type  2   force =    -0.01056027   -5.96999764   -7.66279684
     atom   10 type  2   force =     0.01010663    5.97354632    7.66135598
     atom   11 type  2   force =     0.01139677    5.98526767    7.68817499
     atom   12 type  2   force =    -0.01532927   -5.98636226   -7.68644677
     atom   13 type  2   force =     6.69105166   -0.29805385    6.32796107
     atom   14 type  2   force =    -1.11342017   -9.05199551    1.03329140
     atom   15 type  2   force =    -6.69527678    6.16138600    1.21968728
     atom   16 type  2   force =     1.11304286    3.18751771   -8.57421289
     atom   17 type  2   force =    -6.67316222    0.27845173   -6.30270615
     atom   18 type  2   force =     1.10682691    9.03811957   -1.02349353
     atom   19 type  2   force =     6.66302146   -6.15538101   -1.23621837
     atom   20 type  2   force =    -1.09743588   -3.16141919    8.56587783
     The core correction contribution to forces
     atom    1 type  1   force =     0.00000082    0.00000032   -0.00000016
     atom    2 type  1   force =    -0.00000069   -0.00000031    0.00000026
     atom    3 type  1   force =    -0.00000099   -0.00000051    0.00000036
     atom    4 type  1   force =     0.00000138    0.00000030   -0.00000041
     atom    5 type  1   force =    -0.00000111   -0.00000040    0.00000032
     atom    6 type  1   force =     0.00000124    0.00000047   -0.00000033
     atom    7 type  1   force =     0.00000131    0.00000049   -0.00000038
     atom    8 type  1   force =    -0.00000123   -0.00000050    0.00000036
     atom    9 type  2   force =     0.00066694    0.00470795    0.00622616
     atom   10 type  2   force =    -0.00050242   -0.00502742   -0.00606518
     atom   11 type  2   force =    -0.00060089   -0.00590309   -0.01019892
     atom   12 type  2   force =     0.00089249    0.00618253    0.01001374
     atom   13 type  2   force =    -0.00329073    0.00084799   -0.00857071
     atom   14 type  2   force =    -0.00169571    0.00626106    0.00014945
     atom   15 type  2   force =     0.00290897   -0.00415301    0.00164894
     atom   16 type  2   force =     0.00195952   -0.00284175    0.00598999
     atom   17 type  2   force =     0.00165947    0.00093056    0.00597207
     atom   18 type  2   force =     0.00189094   -0.00498179   -0.00077028
     atom   19 type  2   force =    -0.00098537    0.00424289    0.00166386
     atom   20 type  2   force =    -0.00244254    0.00018889   -0.00740955
     The Hubbard contrib.    to forces
     atom    1 type  1   force =     0.00000000    0.00000000    0.00000000
     atom    2 type  1   force =     0.00000000    0.00000000    0.00000000
     atom    3 type  1   force =     0.00000000    0.00000000    0.00000000
     atom    4 type  1   force =     0.00000000    0.00000000    0.00000000
     atom    5 type  1   force =     0.00000000    0.00000000    0.00000000
     atom    6 type  1   force =     0.00000000    0.00000000    0.00000000
     atom    7 type  1   force =     0.00000000    0.00000000    0.00000000
     atom    8 type  1   force =     0.00000000    0.00000000    0.00000000
     atom    9 type  2   force =     0.00000000    0.00000000    0.00000000
     atom   10 type  2   force =     0.00000000    0.00000000    0.00000000
     atom   11 type  2   force =     0.00000000    0.00000000    0.00000000
     atom   12 type  2   force =     0.00000000    0.00000000    0.00000000
     atom   13 type  2   force =     0.00000000    0.00000000    0.00000000
     atom   14 type  2   force =     0.00000000    0.00000000    0.00000000
     atom   15 type  2   force =     0.00000000    0.00000000    0.00000000
     atom   16 type  2   force =     0.00000000    0.00000000    0.00000000
     atom   17 type  2   force =     0.00000000    0.00000000    0.00000000
     atom   18 type  2   force =     0.00000000    0.00000000    0.00000000
     atom   19 type  2   force =     0.00000000    0.00000000    0.00000000
     atom   20 type  2   force =     0.00000000    0.00000000    0.00000000
     The SCF correction term to forces
     atom    1 type  1   force =     0.00012600   -0.00019571   -0.00003662
     atom    2 type  1   force =    -0.00182483   -0.00078655    0.00118485
     atom    3 type  1   force =     0.00040939    0.00042810   -0.00048921
     atom    4 type  1   force =     0.00032085    0.00026653   -0.00074417
     atom    5 type  1   force =     0.00196723    0.00103351    0.00031278
     atom    6 type  1   force =     0.00090183   -0.00002356   -0.00083609
     atom    7 type  1   force =    -0.00028545   -0.00032772   -0.00023891
     atom    8 type  1   force =    -0.00151571   -0.00038876    0.00065592
     atom    9 type  2   force =    -0.00027208   -0.00010375    0.00005187
     atom   10 type  2   force =    -0.00021659   -0.00009243    0.00009847
     atom   11 type  2   force =     0.00026043    0.00005780   -0.00018439
     atom   12 type  2   force =     0.00026037    0.00015592    0.00003205
     atom   13 type  2   force =     0.00017412    0.00012211   -0.00007730
     atom   14 type  2   force =     0.00005322   -0.00001150   -0.00013170
     atom   15 type  2   force =     0.00012569    0.00005672    0.00008541
     atom   16 type  2   force =     0.00018529   -0.00001511   -0.00001122
     atom   17 type  2   force =    -0.00003954    0.00002814    0.00003784
     atom   18 type  2   force =    -0.00029923   -0.00008636   -0.00001518
     atom   19 type  2   force =    -0.00024372   -0.00008931    0.00016211
     atom   20 type  2   force =     0.00000241   -0.00002600   -0.00003963

     Total force =     0.135159     Total SCF correction =     0.004133


     Computing stress (Cartesian axis) and pressure


     negative rho (up, down):  3.571E-01 0.000E+00
          total   stress  (Ry/bohr**3)                   (kbar)     P=     -122.67
   0.00403146   0.00273978  -0.00268563          593.05      403.04     -395.07
   0.00273978  -0.00364633  -0.00082708          403.04     -536.39     -121.67
  -0.00268563  -0.00082708  -0.00288681         -395.07     -121.67     -424.67

     kinetic stress (kbar)   7184.17    292.77   -281.84
                              292.77   6372.37    -88.99
                             -281.84    -88.99   6498.20

     local   stress (kbar) -11255.94  -1346.32   1023.04
                            -1346.32  -5555.62   3615.95
                             1023.04   3615.95  -3901.51

     nonloc. stress (kbar)   3919.91     69.77    -75.75
                               69.77   3715.17    -34.31
                              -75.75    -34.31   3702.21

     hartree stress (kbar)  24564.74    666.30   -494.46
                              666.30  21767.30  -1698.95
                             -494.46  -1698.95  21065.44

     exc-cor stress (kbar)     64.11      0.12      0.07
                                0.12     63.06     -0.38
                                0.07     -0.38     63.66

     corecor stress (kbar)  -4299.34     -6.68      3.40
                               -6.68  -4278.24      0.41
                                3.40      0.41  -4287.33

     ewald   stress (kbar) -19584.60    727.08   -569.53
                              727.08 -22620.43  -1915.40
                             -569.53  -1915.40 -23565.33

     hubbard stress (kbar)      0.00      0.00      0.00
                                0.00      0.00      0.00
                                0.00      0.00      0.00

     DFT-D   stress (kbar)      0.00      0.00      0.00
                                0.00      0.00      0.00
                                0.00      0.00      0.00

     XDM     stress (kbar)      0.00      0.00      0.00
                                0.00      0.00      0.00
                                0.00      0.00      0.00

     dft-nl  stress (kbar)      0.00      0.00      0.00
                                0.00      0.00      0.00
                                0.00      0.00      0.00

     TS-vdW  stress (kbar)      0.00      0.00      0.00
                                0.00      0.00      0.00
                                0.00      0.00      0.00


                                0.00      0.00      0.00
                                0.00      0.00      0.00


                                0.00      0.00      0.00


     Writing all to output data dir new_calculations/myprefix.save/
 
     init_run     :    382.64s CPU     17.43s WALL (       1 calls)
     electrons    :   4419.43s CPU    145.83s WALL (       1 calls)
     forces       :     59.02s CPU      1.99s WALL (       1 calls)
     stress       :    182.99s CPU      6.64s WALL (       1 calls)

     Called by init_run:
     wfcinit      :    134.45s CPU      4.33s WALL (       1 calls)
     wfcinit:atom :      0.75s CPU      0.03s WALL (       1 calls)
     wfcinit:wfcr :    131.44s CPU      4.23s WALL (       1 calls)
     potinit      :    114.39s CPU      4.15s WALL (       1 calls)
     hinit0       :     90.45s CPU      7.43s WALL (       1 calls)

     Called by electrons:
     c_bands      :   2089.83s CPU     66.64s WALL (      16 calls)
     sum_band     :    641.14s CPU     22.39s WALL (      16 calls)
     v_of_rho     :    112.79s CPU      3.83s WALL (      16 calls)
     v_h          :      5.60s CPU      0.19s WALL (      16 calls)
     v_xc         :    118.92s CPU      4.04s WALL (      18 calls)
     newd         :    641.85s CPU     21.79s WALL (      16 calls)
     PAW_pot      :   1002.14s CPU     33.51s WALL (      16 calls)
     mix_rho      :     15.80s CPU      0.53s WALL (      16 calls)

     Called by c_bands:
     init_us_2    :      1.37s CPU      0.06s WALL (      33 calls)
     init_us_2:cp :      1.31s CPU      0.06s WALL (      33 calls)
     regterg      :   2081.64s CPU     66.36s WALL (      16 calls)

     Called by sum_band:
     sum_band:wei :      0.09s CPU      0.00s WALL (      16 calls)
     sum_band:loo :    377.44s CPU     11.98s WALL (      16 calls)
     sum_band:buf :      0.01s CPU      0.00s WALL (      16 calls)
     sum_band:ini :      0.69s CPU      0.02s WALL (      16 calls)
     sum_band:cal :      1.33s CPU      0.05s WALL (      16 calls)
     sum_band:bec :      0.25s CPU      0.01s WALL (      16 calls)
     addusdens    :    252.75s CPU     10.04s WALL (      16 calls)
     addusd:skk   :      1.54s CPU      0.12s WALL (      32 calls)
     addusd:dgemm :     11.58s CPU      1.91s WALL (      32 calls)
     addusd:qvan2 :    149.41s CPU      4.87s WALL (      32 calls)

     Called by *egterg:
     rdiaghg      :     94.03s CPU      3.13s WALL (     122 calls)
     regterg:over :      4.30s CPU      0.14s WALL (     107 calls)
     regterg:upda :      8.34s CPU      0.28s WALL (     107 calls)
     regterg:last :     16.30s CPU      0.53s WALL (      32 calls)
     h_psi        :   2042.19s CPU     64.89s WALL (     124 calls)
     s_psi        :      4.74s CPU      0.15s WALL (     124 calls)
     g_psi        :      0.28s CPU      0.01s WALL (     107 calls)

     Called by h_psi:
     h_psi:calbec :      5.42s CPU      0.21s WALL (     124 calls)
     vloc_psi     :   2028.97s CPU     64.42s WALL (     124 calls)
     add_vuspsi   :      6.15s CPU      0.20s WALL (     124 calls)

     General routines
     calbec       :      6.86s CPU      0.27s WALL (     145 calls)
     fft          :     77.77s CPU      3.06s WALL (     195 calls)
     ffts         :     38.55s CPU      1.60s WALL (      32 calls)
     fftw         :   2014.95s CPU     63.47s WALL (    7938 calls)
     interpolate  :     52.27s CPU      2.07s WALL (      16 calls)
 
     Parallel routines

     PAW routines
     PAW_pot      :   1002.14s CPU     33.51s WALL (      16 calls)
     PAW_symme    :      0.64s CPU      0.02s WALL (      32 calls)
 
     PWSCF        :      1h24m CPU   2m57.45s WALL

 
   This run was terminated on:   9: 9:14  20May2023            

=------------------------------------------------------------------------------=
   JOB DONE.
=------------------------------------------------------------------------------=
