
     Program PWSCF v.7.0 starts on 21May2023 at 13:56:50 

     This program is part of the open-source Quantum ESPRESSO suite
     for quantum simulation of materials; please cite
         "P. Giannozzi et al., J. Phys.:Condens. Matter 21 395502 (2009);
         "P. Giannozzi et al., J. Phys.:Condens. Matter 29 465901 (2017);
         "P. Giannozzi et al., J. Chem. Phys. 152 154105 (2020);
          URL http://www.quantum-espresso.org", 
     in publications or presentations arising from this work. More details at
     http://www.quantum-espresso.org/quote

     Parallel version (MPI & OpenMP), running on      32 processor cores
     Number of MPI processes:                 1
     Threads/MPI process:                    32

     MPI processes distributed on     1 nodes
     78269 MiB available memory on the printing compute node when the environment starts
 
     Reading input from espresso_21971.pwi
Warning: card &CELL ignored
Warning: card / ignored

     Current dimensions of program PWSCF are:
     Max number of different atomic species (ntypx) = 10
     Max number of k-points (npk) =  40000
     Max angular momentum in pseudopotentials (lmaxx) =  4
     file O.pbe-n-kjpaw_psl.0.1.UPF: wavefunction(s)  2P renormalized

     gamma-point specific algorithms are used

     Subspace diagonalization in iterative solution of the eigenvalue problem:
     a serial algorithm will be used

 
     G-vector sticks info
     --------------------
     sticks:   dense  smooth     PW     G-vecs:    dense   smooth      PW
     Sum        3613    1799    447               108937    38533    4825
 
     Using Slab Decomposition
 


     bravais-lattice index     =            0
     lattice parameter (alat)  =      18.4054  a.u.
     unit-cell volume          =    1733.2449 (a.u.)^3
     number of atoms/cell      =           19
     number of atomic types    =            4
     number of electrons       =       152.00
     number of Kohn-Sham states=           91
     kinetic-energy cutoff     =      30.0000  Ry
     charge density cutoff     =     240.0000  Ry
     scf convergence threshold =      1.0E-06
     mixing beta               =       0.7000
     number of iterations used =            8  plain     mixing
     Exchange-correlation= SLA  PW   PBX  PBC
                           (   1   4   3   4   0   0   0)

     celldm(1)=  18.405359  celldm(2)=   0.000000  celldm(3)=   0.000000
     celldm(4)=   0.000000  celldm(5)=   0.000000  celldm(6)=   0.000000

     crystal axes: (cart. coord. in units of alat)
               a(1) = (   1.000000   0.000000   0.000000 )  
               a(2) = (   0.829524   0.558471   0.000000 )  
               a(3) = (   0.829524   0.253216   0.497767 )  

     reciprocal axes: (cart. coord. in units 2 pi/alat)
               b(1) = (  1.000000 -1.485347 -0.910887 )  
               b(2) = (  0.000000  1.790602 -0.910887 )  
               b(3) = (  0.000000  0.000000  2.008972 )  


     PseudoPot. # 1 for Sr read from file:
     /home/pragov/projects/rrg-bengioy-ad/pragov/crystal_structure_design/SSSP/Sr_pbe_v1.uspp.F.UPF
     MD5 check sum: 6b418c05fbe9db5448babca5e47b7a5b
     Pseudo is Ultrasoft + core correction, Zval = 10.0
     Generated by new atomic code, or converted to UPF format
     Using radial grid of  883 points,  6 beta functions with: 
                l(1) =   0
                l(2) =   0
                l(3) =   1
                l(4) =   1
                l(5) =   2
                l(6) =   2
     Q(r) pseudized with  6 coefficients,  rinner =    1.400   1.400   1.400
                                                       1.400   1.400

     PseudoPot. # 2 for La read from file:
     /home/pragov/projects/rrg-bengioy-ad/pragov/crystal_structure_design/SSSP/La.GGA-PBE-paw-v1.0.UPF
     MD5 check sum: 436541e95c1ad8901025bd0b0ed42ae2
     Pseudo is Projector augmented-wave + core cor, Zval = 11.0
     Generated using ATOMPAW code
     Shape of augmentation charge: BESSEL
     Using radial grid of 1101 points,  8 beta functions with: 
                l(1) =   0
                l(2) =   0
                l(3) =   1
                l(4) =   1
                l(5) =   2
                l(6) =   2
                l(7) =   3
                l(8) =   3
     Q(r) pseudized with 0 coefficients 


     PseudoPot. # 3 for Ta read from file:
     /home/pragov/projects/rrg-bengioy-ad/pragov/crystal_structure_design/SSSP/Ta_pbe_v1.uspp.F.UPF
     MD5 check sum: f8bbe9446314a3b8ea5d9f3e3836c939
     Pseudo is Ultrasoft + core correction, Zval = 13.0
     Generated by new atomic code, or converted to UPF format
     Using radial grid of  921 points,  7 beta functions with: 
                l(1) =   0
                l(2) =   0
                l(3) =   1
                l(4) =   1
                l(5) =   2
                l(6) =   2
                l(7) =   3
     Q(r) pseudized with  6 coefficients,  rinner =    1.300   1.300   1.300
                                                       1.300   1.300   1.300
                                                       1.300

     PseudoPot. # 4 for O  read from file:
     /home/pragov/projects/rrg-bengioy-ad/pragov/crystal_structure_design/SSSP/O.pbe-n-kjpaw_psl.0.1.UPF
     MD5 check sum: 0234752ac141de4415c5fc33072bef88
     Pseudo is Projector augmented-wave + core cor, Zval =  6.0
     Generated using "atomic" code by A. Dal Corso  v.5.0.99 svn rev. 10869
     Shape of augmentation charge: BESSEL
     Using radial grid of 1095 points,  4 beta functions with: 
                l(1) =   0
                l(2) =   0
                l(3) =   1
                l(4) =   1
     Q(r) pseudized with 0 coefficients 


     atomic species   valence    mass     pseudopotential
        Sr            10.00    87.62000     Sr( 1.00)
        La            11.00   138.90547     La( 1.00)
        Ta            13.00   180.94788     Ta( 1.00)
        O              6.00    15.99900     O ( 1.00)

     No symmetry found


                                    s                        frac. trans.

      isym =  1     identity                                     

 cryst.   s( 1) = (     1          0          0      )
                  (     0          1          0      )
                  (     0          0          1      )

 cart.    s( 1) = (  1.0000000 -0.0000000 -0.0000000 )
                  (  0.0000000  1.0000000  0.0000000 )
                  (  0.0000000  0.0000000  1.0000000 )


   Cartesian axes

     site n.     atom                  positions (alat units)
         1           Sr  tau(   1) = (   0.3678659   0.1122930   0.0688636  )
         2           Sr  tau(   2) = (   1.8974458   0.5792050   0.3551970  )
         3           Sr  tau(   3) = (   0.7603786   0.2321094   0.1423409  )
         4           La  tau(   4) = (   2.2761234   0.6947983   0.4260845  )
         5           Ta  tau(   5) = (   1.5342066   0.4683244   0.2871996  )
         6           Ta  tau(   6) = (   1.1248622   0.3433699   0.2105713  )
         7           Ta  tau(   7) = (   0.0003590   0.0001096   0.0000672  )
         8           O   tau(   8) = (   1.6935077   0.5169519   0.1459268  )
         9           O   tau(   9) = (   1.6083430   0.6434509   0.3945958  )
        10           O   tau(  10) = (   1.6935077   0.3644559   0.3945958  )
        11           O   tau(  11) = (   0.9682704   0.2955695   0.3512950  )
        12           O   tau(  12) = (   1.0529093   0.1698514   0.1041612  )
        13           O   tau(  13) = (   0.9682704   0.4471241   0.1041612  )
        14           O   tau(  14) = (   1.4180533   0.4328680   0.4394003  )
        15           O   tau(  15) = (   1.5046370   0.3042612   0.1865879  )
        16           O   tau(  16) = (   1.4180532   0.5879049   0.1865879  )
        17           O   tau(  17) = (   1.2439466   0.3797211   0.0576802  )
        18           O   tau(  18) = (   1.1567461   0.5092440   0.3122935  )
        19           O   tau(  19) = (   1.2439466   0.2235797   0.3122935  )

   Crystallographic axes

     site n.     atom                  positions (cryst. coord.)
         1           Sr  tau(   1) = (  0.1383450  0.1383450  0.1383450  )
         2           Sr  tau(   2) = (  0.7135810  0.7135810  0.7135810  )
         3           Sr  tau(   3) = (  0.2859590  0.2859590  0.2859590  )
         4           La  tau(   4) = (  0.8559920  0.8559920  0.8559920  )
         5           Ta  tau(   5) = (  0.5769760  0.5769760  0.5769760  )
         6           Ta  tau(   6) = (  0.4230320  0.4230320  0.4230320  )
         7           Ta  tau(   7) = (  0.0001350  0.0001350  0.0001350  )
         8           O   tau(   8) = (  0.7927320  0.7927320  0.2931630  )
         9           O   tau(   9) = (  0.2931630  0.7927320  0.7927320  )
        10           O   tau(  10) = (  0.7927320  0.2931630  0.7927320  )
        11           O   tau(  11) = (  0.2092570  0.2092570  0.7057420  )
        12           O   tau(  12) = (  0.7057420  0.2092570  0.2092570  )
        13           O   tau(  13) = (  0.2092570  0.7057420  0.2092570  )
        14           O   tau(  14) = (  0.3748500  0.3748500  0.8827430  )
        15           O   tau(  15) = (  0.8827430  0.3748500  0.3748500  )
        16           O   tau(  16) = (  0.3748500  0.8827430  0.3748500  )
        17           O   tau(  17) = (  0.6273890  0.6273890  0.1158780  )
        18           O   tau(  18) = (  0.1158780  0.6273890  0.6273890  )
        19           O   tau(  19) = (  0.6273890  0.1158780  0.6273890  )

     number of k points=     1  Methfessel-Paxton smearing, width (Ry)=  0.0010
                       cart. coord. in units 2pi/alat
        k(    1) = (   0.0000000   0.0000000   0.0000000), wk =   2.0000000

                       cryst. coord.
        k(    1) = (   0.0000000   0.0000000   0.0000000), wk =   2.0000000

     Dense  grid:    54469 G-vectors     FFT dimensions: (  96,  96,  96)

     Smooth grid:    19267 G-vectors     FFT dimensions: (  72,  72,  72)

     Dynamical RAM for                 wfc:       3.34 MB

     Dynamical RAM for     wfc (w. buffer):       3.34 MB

     Dynamical RAM for           str. fact:       3.32 MB

     Dynamical RAM for           local pot:       0.00 MB

     Dynamical RAM for          nlocal pot:       9.43 MB

     Dynamical RAM for                qrad:      11.94 MB

     Dynamical RAM for          rho,v,vnew:      22.74 MB

     Dynamical RAM for               rhoin:       7.58 MB

     Dynamical RAM for            rho*nmix:      13.30 MB

     Dynamical RAM for           G-vectors:       3.26 MB

     Dynamical RAM for          h,s,v(r/c):       0.76 MB

     Dynamical RAM for          <psi|beta>:       0.18 MB

     Dynamical RAM for                 psi:       6.68 MB

     Dynamical RAM for                hpsi:       6.68 MB

     Dynamical RAM for                spsi:       6.68 MB

     Dynamical RAM for      wfcinit/wfcrot:      12.17 MB

     Dynamical RAM for           addusdens:     471.25 MB

     Dynamical RAM for          addusforce:     490.10 MB

     Dynamical RAM for         addusstress:     483.72 MB

     Estimated static dynamical RAM per process >      99.53 MB

     Estimated max dynamical RAM per process >     602.93 MB

     Check: negative core charge=   -0.000009

     Initial potential from superposition of free atoms

     starting charge     151.8872, renormalised to     152.0000

     negative rho (up, down):  4.725E-01 0.000E+00
     Starting wfcs are  158 randomized atomic wfcs
     Checking if some PAW data can be deallocated... 

     total cpu time spent up to now is       11.7 secs

     Self-consistent Calculation

     iteration #  1     ecut=    30.00 Ry     beta= 0.70
     Davidson diagonalization with overlap

---- Real-time Memory Report at c_bands before calling an iterative solver
           846 MiB given to the printing process from OS
             0 MiB allocation reported by mallinfo(arena+hblkhd)
         77871 MiB available memory on the node where the printing process lives
------------------
     ethr =  1.00E-02,  avg # of iterations =  2.0

     negative rho (up, down):  4.774E-01 0.000E+00

     total cpu time spent up to now is       14.3 secs

     total energy              =   -1592.06676926 Ry
     estimated scf accuracy    <       6.80139156 Ry

     iteration #  2     ecut=    30.00 Ry     beta= 0.70
     Davidson diagonalization with overlap

---- Real-time Memory Report at c_bands before calling an iterative solver
          1104 MiB given to the printing process from OS
             0 MiB allocation reported by mallinfo(arena+hblkhd)
         77816 MiB available memory on the node where the printing process lives
------------------
     ethr =  4.47E-03,  avg # of iterations =  7.0

     negative rho (up, down):  4.800E-01 0.000E+00

     total cpu time spent up to now is       17.5 secs

     total energy              =   -1582.86617193 Ry
     estimated scf accuracy    <      64.16469835 Ry

     iteration #  3     ecut=    30.00 Ry     beta= 0.70
     Davidson diagonalization with overlap

---- Real-time Memory Report at c_bands before calling an iterative solver
          1161 MiB given to the printing process from OS
             0 MiB allocation reported by mallinfo(arena+hblkhd)
         77740 MiB available memory on the node where the printing process lives
------------------
     ethr =  4.47E-03,  avg # of iterations =  5.0

     negative rho (up, down):  4.826E-01 0.000E+00

     total cpu time spent up to now is       20.6 secs

     total energy              =   -1595.16462595 Ry
     estimated scf accuracy    <       4.26992754 Ry

     iteration #  4     ecut=    30.00 Ry     beta= 0.70
     Davidson diagonalization with overlap

---- Real-time Memory Report at c_bands before calling an iterative solver
          1182 MiB given to the printing process from OS
             0 MiB allocation reported by mallinfo(arena+hblkhd)
         77743 MiB available memory on the node where the printing process lives
------------------
     ethr =  2.81E-03,  avg # of iterations =  3.0

     negative rho (up, down):  4.841E-01 0.000E+00

     total cpu time spent up to now is       23.5 secs

     total energy              =   -1595.76124280 Ry
     estimated scf accuracy    <       0.88930685 Ry

     iteration #  5     ecut=    30.00 Ry     beta= 0.70
     Davidson diagonalization with overlap

---- Real-time Memory Report at c_bands before calling an iterative solver
          1182 MiB given to the printing process from OS
             0 MiB allocation reported by mallinfo(arena+hblkhd)
         77742 MiB available memory on the node where the printing process lives
------------------
     ethr =  5.85E-04,  avg # of iterations =  3.0

     negative rho (up, down):  4.864E-01 0.000E+00

     total cpu time spent up to now is       27.3 secs

     total energy              =   -1595.66866418 Ry
     estimated scf accuracy    <       0.62127257 Ry

     iteration #  6     ecut=    30.00 Ry     beta= 0.70
     Davidson diagonalization with overlap

---- Real-time Memory Report at c_bands before calling an iterative solver
          1184 MiB given to the printing process from OS
             0 MiB allocation reported by mallinfo(arena+hblkhd)
         77743 MiB available memory on the node where the printing process lives
------------------
     ethr =  4.09E-04,  avg # of iterations =  3.0

     negative rho (up, down):  4.877E-01 0.000E+00

     total cpu time spent up to now is       29.9 secs

     total energy              =   -1595.59242057 Ry
     estimated scf accuracy    <       0.31477882 Ry

     iteration #  7     ecut=    30.00 Ry     beta= 0.70
     Davidson diagonalization with overlap

---- Real-time Memory Report at c_bands before calling an iterative solver
          1184 MiB given to the printing process from OS
             0 MiB allocation reported by mallinfo(arena+hblkhd)
         77741 MiB available memory on the node where the printing process lives
------------------
     ethr =  2.07E-04,  avg # of iterations = 10.0

     negative rho (up, down):  4.878E-01 0.000E+00

     total cpu time spent up to now is       32.8 secs

     total energy              =   -1595.58749212 Ry
     estimated scf accuracy    <       0.11408123 Ry

     iteration #  8     ecut=    30.00 Ry     beta= 0.70
     Davidson diagonalization with overlap

---- Real-time Memory Report at c_bands before calling an iterative solver
          1184 MiB given to the printing process from OS
             0 MiB allocation reported by mallinfo(arena+hblkhd)
         77739 MiB available memory on the node where the printing process lives
------------------
     ethr =  7.51E-05,  avg # of iterations = 10.0

     negative rho (up, down):  4.878E-01 0.000E+00

     total cpu time spent up to now is       35.8 secs

     total energy              =   -1595.57057048 Ry
     estimated scf accuracy    <       0.05834585 Ry

     iteration #  9     ecut=    30.00 Ry     beta= 0.70
     Davidson diagonalization with overlap

---- Real-time Memory Report at c_bands before calling an iterative solver
          1184 MiB given to the printing process from OS
             0 MiB allocation reported by mallinfo(arena+hblkhd)
         77739 MiB available memory on the node where the printing process lives
------------------
     ethr =  3.84E-05,  avg # of iterations = 10.0

     negative rho (up, down):  4.878E-01 0.000E+00

     total cpu time spent up to now is       38.7 secs

     total energy              =   -1595.56453832 Ry
     estimated scf accuracy    <       0.01671039 Ry

     iteration # 10     ecut=    30.00 Ry     beta= 0.70
     Davidson diagonalization with overlap

---- Real-time Memory Report at c_bands before calling an iterative solver
          1184 MiB given to the printing process from OS
             0 MiB allocation reported by mallinfo(arena+hblkhd)
         77738 MiB available memory on the node where the printing process lives
------------------
     ethr =  1.10E-05,  avg # of iterations =  7.0

     negative rho (up, down):  4.878E-01 0.000E+00

     total cpu time spent up to now is       41.7 secs

     total energy              =   -1595.56739864 Ry
     estimated scf accuracy    <       0.00055882 Ry

     iteration # 11     ecut=    30.00 Ry     beta= 0.70
     Davidson diagonalization with overlap

---- Real-time Memory Report at c_bands before calling an iterative solver
          1184 MiB given to the printing process from OS
             0 MiB allocation reported by mallinfo(arena+hblkhd)
         77741 MiB available memory on the node where the printing process lives
------------------
     ethr =  3.68E-07,  avg # of iterations =  4.0

     negative rho (up, down):  4.878E-01 0.000E+00

     total cpu time spent up to now is       44.6 secs

     total energy              =   -1595.56757036 Ry
     estimated scf accuracy    <       0.00005891 Ry

     iteration # 12     ecut=    30.00 Ry     beta= 0.70
     Davidson diagonalization with overlap

---- Real-time Memory Report at c_bands before calling an iterative solver
          1184 MiB given to the printing process from OS
             0 MiB allocation reported by mallinfo(arena+hblkhd)
         77742 MiB available memory on the node where the printing process lives
------------------
     ethr =  3.88E-08,  avg # of iterations =  4.0

     negative rho (up, down):  4.878E-01 0.000E+00

     total cpu time spent up to now is       47.4 secs

     total energy              =   -1595.56758338 Ry
     estimated scf accuracy    <       0.00001476 Ry

     iteration # 13     ecut=    30.00 Ry     beta= 0.70
     Davidson diagonalization with overlap

---- Real-time Memory Report at c_bands before calling an iterative solver
          1185 MiB given to the printing process from OS
             0 MiB allocation reported by mallinfo(arena+hblkhd)
         77722 MiB available memory on the node where the printing process lives
------------------
     ethr =  9.71E-09,  avg # of iterations =  2.0

     negative rho (up, down):  4.878E-01 0.000E+00

     total cpu time spent up to now is       50.0 secs

     total energy              =   -1595.56758584 Ry
     estimated scf accuracy    <       0.00000213 Ry

     iteration # 14     ecut=    30.00 Ry     beta= 0.70
     Davidson diagonalization with overlap

---- Real-time Memory Report at c_bands before calling an iterative solver
          1185 MiB given to the printing process from OS
             0 MiB allocation reported by mallinfo(arena+hblkhd)
         77722 MiB available memory on the node where the printing process lives
------------------
     ethr =  1.40E-09,  avg # of iterations =  4.0

     negative rho (up, down):  4.878E-01 0.000E+00

     total cpu time spent up to now is       52.9 secs

     End of self-consistent calculation

          k = 0.0000 0.0000 0.0000 (  2413 PWs)   bands (ev):

   -57.5271 -57.4740 -57.1361 -24.1457 -24.0581 -24.0581 -24.0578 -24.0307
   -24.0307 -23.7736 -23.7585 -23.7585 -23.3889 -23.0901 -22.9916 -21.3444
    -7.5850  -7.3587  -6.9900  -6.7943  -6.7941  -6.5631  -6.5629  -6.3115
    -6.3114  -6.0451  -5.9790  -5.9789  -5.3770  -5.3769  -5.2770  -5.1490
    -5.1490  -4.9721  -4.9608  -4.9607  -4.6187  -4.6088  -4.6087  -4.1973
     5.1593   5.5176   5.5177   5.9432   6.1719   6.1719   6.3169   6.3766
     6.3766   6.5681   6.5682   6.5933   6.6330   7.4389   7.4390   7.5187
     7.5509   7.5510   7.9806   7.9808   7.9995   8.6819   8.6820   8.8255
     8.9940   8.9941   9.3199   9.3783   9.3783   9.4418   9.5042   9.6389
     9.6390   9.9795   9.9795  10.1245  13.0781  13.0851  13.0851  13.4990
    13.4990  13.5354  13.5948  13.5948  13.6554  13.8490  14.5195  14.5195
    14.7042  14.7918  14.7918

     occupation numbers 
     1.0000   1.0000   1.0000   1.0000   1.0000   1.0000   1.0000   1.0000
     1.0000   1.0000   1.0000   1.0000   1.0000   1.0000   1.0000   1.0000
     1.0000   1.0000   1.0000   1.0000   1.0000   1.0000   1.0000   1.0000
     1.0000   1.0000   1.0000   1.0000   1.0000   1.0000   1.0000   1.0000
     1.0000   1.0000   1.0000   1.0000   1.0000   1.0000   1.0000   1.0000
     1.0000   1.0000   1.0000   1.0000   1.0000   1.0000   1.0000   1.0000
     1.0000   1.0000   1.0000   1.0000   1.0000   1.0000   1.0000   1.0000
     1.0000   1.0000   1.0000   1.0000   1.0000   1.0000   1.0000   1.0000
     1.0000   1.0000   1.0000   1.0000   1.0000   1.0000   1.0000   1.0000
     1.0000   1.0000   1.0000   1.0000  -0.0000  -0.0000  -0.0000  -0.0000
    -0.0000  -0.0000  -0.0000  -0.0000  -0.0000  -0.0000  -0.0000  -0.0000
    -0.0000  -0.0000  -0.0000

     the Fermi energy is    10.3909 ev

!    total energy              =   -1595.56758609 Ry
     estimated scf accuracy    <       0.00000074 Ry
     smearing contrib. (-TS)   =       0.00000000 Ry
     internal energy E=F+TS    =   -1595.56758609 Ry

     The total energy is F=E-TS. E is the sum of the following terms:
     one-electron contribution =    -233.04289375 Ry
     hartree contribution      =     205.66672178 Ry
     xc contribution           =    -280.61833556 Ry
     ewald contribution        =    -775.28642326 Ry
     one-center paw contrib.   =    -512.28665530 Ry
      -> PAW hartree energy AE =     398.39031906 Ry
      -> PAW hartree energy PS =    -397.11137125 Ry
      -> PAW xc energy AE      =    -612.60602307 Ry
      -> PAW xc energy PS      =      99.04041997 Ry
      -> total E_H with PAW    =     206.94566959 Ry
      -> total E_XC with PAW   =    -794.18393866 Ry

     convergence has been achieved in  14 iterations

     negative rho (up, down):  4.878E-01 0.000E+00

     Forces acting on atoms (cartesian axes, Ry/au):

     atom    1 type  1   force =     0.01362354    0.00416434    0.00254491
     atom    2 type  1   force =     0.01897005    0.00579915    0.00354898
     atom    3 type  1   force =    -0.02728216   -0.00832288   -0.00512629
     atom    4 type  2   force =    -0.02330188   -0.00711650   -0.00436565
     atom    5 type  3   force =    -0.06550335   -0.02000180   -0.01224489
     atom    6 type  3   force =     0.06579919    0.02008816    0.01232504
     atom    7 type  3   force =    -0.01160534   -0.00354841   -0.00215205
     atom    8 type  4   force =     0.02237595    0.00683413   -0.00333781
     atom    9 type  4   force =     0.01862953    0.01238919    0.00759150
     atom   10 type  4   force =     0.02237248    0.00012557    0.00759632
     atom   11 type  4   force =    -0.01152402   -0.00351472    0.00287283
     atom   12 type  4   force =    -0.00902118   -0.00722712   -0.00443630
     atom   13 type  4   force =    -0.01152236    0.00095938   -0.00443527
     atom   14 type  4   force =     0.04128130    0.01260381   -0.00981584
     atom   15 type  4   force =     0.03256300    0.02558471    0.01568575
     atom   16 type  4   force =     0.04130478   -0.00305342    0.01569107
     atom   17 type  4   force =    -0.04124742   -0.01258769    0.00558132
     atom   18 type  4   force =    -0.03464756   -0.02244837   -0.01376843
     atom   19 type  4   force =    -0.04126455   -0.00072753   -0.01375517
     The non-local contrib.  to forces
     atom    1 type  1   force =    -0.08374996   -0.02556457   -0.01568227
     atom    2 type  1   force =    -0.03800044   -0.01159967   -0.00711228
     atom    3 type  1   force =     0.04434318    0.01353686    0.00829309
     atom    4 type  2   force =     0.19684541    0.06009598    0.03685658
     atom    5 type  3   force =     0.02219989    0.00676678    0.00422675
     atom    6 type  3   force =     0.02279502    0.00694061    0.00425097
     atom    7 type  3   force =     0.00833832    0.00253328    0.00160795
     atom    8 type  4   force =    -0.00582742   -0.00178459   -0.16435664
     atom    9 type  4   force =    -0.08711089    0.11888809    0.07292863
     atom   10 type  4   force =    -0.00584284   -0.14727887    0.07293320
     atom   11 type  4   force =     0.03714866    0.01134009    0.12493727
     atom   12 type  4   force =     0.09587589   -0.07588017   -0.04654136
     atom   13 type  4   force =     0.03715271    0.11646864   -0.04653479
     atom   14 type  4   force =     0.25907332    0.07909553   -0.53563858
     atom   15 type  4   force =    -0.03168746    0.51095969    0.31333180
     atom   16 type  4   force =     0.25907205   -0.44155017    0.31333293
     atom   17 type  4   force =    -0.18290705   -0.05583262    0.41493992
     atom   18 type  4   force =     0.04066804   -0.38794509   -0.23790408
     atom   19 type  4   force =    -0.18292228    0.34451090   -0.23790353
     The ionic contribution  to forces
     atom    1 type  1   force =     0.24882450    0.07595495    0.04657831
     atom    2 type  1   force =     0.68431130    0.20888952    0.12810151
     atom    3 type  1   force =    -1.00776461   -0.30762529   -0.18865120
     atom    4 type  2   force =     2.23531930    0.68234263    0.41844726
     atom    5 type  3   force =    -1.46370309   -0.44680284   -0.27400046
     atom    6 type  3   force =     2.03793352    0.62208962    0.38149494
     atom    7 type  3   force =    -0.09846594   -0.03005723   -0.01843251
     atom    8 type  4   force =    -1.69565671   -0.51760787    0.83156754
     atom    9 type  4   force =    -1.12372808   -1.36712110   -0.83838590
     atom   10 type  4   force =    -1.69565723    0.50648933   -0.83838590
     atom   11 type  4   force =     1.17246143    0.35789984   -0.59529153
     atom   12 type  4   force =     0.76689472    0.96030774    0.58890794
     atom   13 type  4   force =     1.17246184   -0.36830925    0.58890794
     atom   14 type  4   force =    -5.33461555   -1.62841864    5.57190859
     atom   15 type  4   force =    -2.06402265   -6.48638513   -3.97777094
     atom   16 type  4   force =    -5.33461678    4.22791265   -3.97777094
     atom   17 type  4   force =     4.73611263    1.44572257   -4.55434500
     atom   18 type  4   force =     2.02779776    5.46851087    3.35356017
     atom   19 type  4   force =     4.73611364   -3.40379237    3.35356017
     The local contribution  to forces
     atom    1 type  1   force =    -0.15603403   -0.04759735   -0.02923421
     atom    2 type  1   force =    -0.62834793   -0.19178876   -0.11761171
     atom    3 type  1   force =     0.93757215    0.28620898    0.17540116
     atom    4 type  2   force =    -2.45628251   -0.74983187   -0.45982637
     atom    5 type  3   force =     1.36592317    0.41691389    0.25588936
     atom    6 type  3   force =    -1.99138329   -0.60793811   -0.37283182
     atom    7 type  3   force =     0.07814933    0.02384585    0.01467822
     atom    8 type  4   force =     1.72260431    0.52583084   -0.67173210
     atom    9 type  4   force =     1.22770155    1.26082021    0.77325411
     atom   10 type  4   force =     1.72251873   -0.36023511    0.77323821
     atom   11 type  4   force =    -1.21976880   -0.37234918    0.47457116
     atom   12 type  4   force =    -0.86989620   -0.89204322   -0.54704153
     atom   13 type  4   force =    -1.21980529    0.25417659   -0.54706696
     atom   14 type  4   force =     5.11731028    1.56210290   -5.05055197
     atom   15 type  4   force =     2.12644890    6.00452124    3.68227335
     atom   16 type  4   force =     5.11731892   -3.79336384    3.68231255
     atom   17 type  4   force =    -4.59436080   -1.40245666    4.14785994
     atom   18 type  4   force =    -2.10158682   -5.10514024   -3.13070444
     atom   19 type  4   force =    -4.59435854    3.06115052   -3.13067743
     The core correction contribution to forces
     atom    1 type  1   force =     0.00492710    0.00150446    0.00092241
     atom    2 type  1   force =     0.00195761    0.00059777    0.00036644
     atom    3 type  1   force =    -0.00228061   -0.00069619   -0.00042763
     atom    4 type  2   force =     0.00003335    0.00001015    0.00000622
     atom    5 type  3   force =     0.00806642    0.00246018    0.00151491
     atom    6 type  3   force =    -0.00221562   -0.00067746   -0.00041575
     atom    7 type  3   force =     0.00131247    0.00039979    0.00024953
     atom    8 type  4   force =     0.00078475    0.00023963    0.00123170
     atom    9 type  4   force =     0.00132499   -0.00056213   -0.00034489
     atom   10 type  4   force =     0.00078486    0.00120645   -0.00034504
     atom   11 type  4   force =    -0.00092701   -0.00028298   -0.00095012
     atom   12 type  4   force =    -0.00131358    0.00029107    0.00017863
     atom   13 type  4   force =    -0.00092714   -0.00097473    0.00017845
     atom   14 type  4   force =    -0.00091358   -0.00027895    0.00412224
     atom   15 type  4   force =     0.00122339   -0.00345291   -0.00211729
     atom   16 type  4   force =    -0.00091346    0.00354735   -0.00211712
     atom   17 type  4   force =     0.00061003    0.00018625   -0.00321445
     atom   18 type  4   force =    -0.00104677    0.00264723    0.00162336
     atom   19 type  4   force =     0.00061022   -0.00278040    0.00162352
     The Hubbard contrib.    to forces
     atom    1 type  1   force =     0.00000000    0.00000000    0.00000000
     atom    2 type  1   force =     0.00000000    0.00000000    0.00000000
     atom    3 type  1   force =     0.00000000    0.00000000    0.00000000
     atom    4 type  2   force =     0.00000000    0.00000000    0.00000000
     atom    5 type  3   force =     0.00000000    0.00000000    0.00000000
     atom    6 type  3   force =     0.00000000    0.00000000    0.00000000
     atom    7 type  3   force =     0.00000000    0.00000000    0.00000000
     atom    8 type  4   force =     0.00000000    0.00000000    0.00000000
     atom    9 type  4   force =     0.00000000    0.00000000    0.00000000
     atom   10 type  4   force =     0.00000000    0.00000000    0.00000000
     atom   11 type  4   force =     0.00000000    0.00000000    0.00000000
     atom   12 type  4   force =     0.00000000    0.00000000    0.00000000
     atom   13 type  4   force =     0.00000000    0.00000000    0.00000000
     atom   14 type  4   force =     0.00000000    0.00000000    0.00000000
     atom   15 type  4   force =     0.00000000    0.00000000    0.00000000
     atom   16 type  4   force =     0.00000000    0.00000000    0.00000000
     atom   17 type  4   force =     0.00000000    0.00000000    0.00000000
     atom   18 type  4   force =     0.00000000    0.00000000    0.00000000
     atom   19 type  4   force =     0.00000000    0.00000000    0.00000000
     The SCF correction term to forces
     atom    1 type  1   force =    -0.00034788   -0.00013759   -0.00003899
     atom    2 type  1   force =    -0.00095429   -0.00030414   -0.00019466
     atom    3 type  1   force =     0.00084393    0.00024831    0.00025863
     atom    4 type  2   force =     0.00077876    0.00026216    0.00015099
     atom    5 type  3   force =     0.00200644    0.00065575    0.00012489
     atom    6 type  3   force =    -0.00133424   -0.00033094   -0.00017296
     atom    7 type  3   force =    -0.00094333   -0.00027455   -0.00025490
     atom    8 type  4   force =     0.00046721    0.00015167   -0.00004797
     atom    9 type  4   force =     0.00043816    0.00035967    0.00013987
     atom   10 type  4   force =     0.00056516   -0.00006069    0.00015619
     atom   11 type  4   force =    -0.00044210   -0.00012694   -0.00039360
     atom   12 type  4   force =    -0.00058582    0.00009301    0.00006036
     atom   13 type  4   force =    -0.00040828   -0.00040632    0.00008043
     atom   14 type  4   force =     0.00042302    0.00009853    0.00034421
     atom   15 type  4   force =     0.00059702   -0.00006264   -0.00003084
     atom   16 type  4   force =     0.00044025    0.00039616   -0.00006601
     atom   17 type  4   force =    -0.00070605   -0.00021169    0.00034124
     atom   18 type  4   force =    -0.00048357   -0.00052559   -0.00034310
     atom   19 type  4   force =    -0.00071140    0.00017937   -0.00035755

     Total force =     0.160125     Total SCF correction =     0.003887


     Computing stress (Cartesian axis) and pressure


     negative rho (up, down):  4.878E-01 0.000E+00
          total   stress  (Ry/bohr**3)                   (kbar)     P=     -265.64
  -0.00242467  -0.00030279  -0.00018560         -356.68      -44.54      -27.30
  -0.00030279  -0.00152512  -0.00005665          -44.54     -224.35       -8.33
  -0.00018560  -0.00005665  -0.00146751          -27.30       -8.33     -215.88

     kinetic stress (kbar)  22952.65    -77.02    -47.22
                              -77.02  23181.45    -14.41
                              -47.22    -14.41  23196.09

     local   stress (kbar)  -1615.64    712.88    437.20
                              712.88  -3733.39    133.46
                              437.20    133.46  -3869.18

     nonloc. stress (kbar)   1427.34     -2.81     -1.73
                               -2.81   1435.70     -0.53
                               -1.73     -0.53   1436.24

     hartree stress (kbar)   5363.91   -222.40   -136.40
                             -222.40   6024.59    -41.64
                             -136.40    -41.64   6066.98

     exc-cor stress (kbar)   4715.12     -0.10     -0.06
                               -0.10   4715.43     -0.02
                               -0.06     -0.02   4715.45

     corecor stress (kbar) -10333.20      1.54      0.94
                                1.54 -10337.77      0.29
                                0.94      0.29 -10338.07

     ewald   stress (kbar) -22866.85   -456.63   -280.03
                             -456.63 -21510.36    -85.48
                             -280.03    -85.48 -21423.39

     hubbard stress (kbar)      0.00      0.00      0.00
                                0.00      0.00      0.00
                                0.00      0.00      0.00

     DFT-D   stress (kbar)      0.00      0.00      0.00
                                0.00      0.00      0.00
                                0.00      0.00      0.00

     XDM     stress (kbar)      0.00      0.00      0.00
                                0.00      0.00      0.00
                                0.00      0.00      0.00

     dft-nl  stress (kbar)      0.00      0.00      0.00
                                0.00      0.00      0.00
                                0.00      0.00      0.00

     TS-vdW  stress (kbar)      0.00      0.00      0.00
                                0.00      0.00      0.00
                                0.00      0.00      0.00


                                0.00      0.00      0.00
                                0.00      0.00      0.00


                                0.00      0.00      0.00


     Writing all to output data dir new_calculations/myprefix.save/
 
     init_run     :    249.37s CPU     11.22s WALL (       1 calls)
     electrons    :   1228.05s CPU     41.46s WALL (       1 calls)
     forces       :     17.26s CPU      0.57s WALL (       1 calls)
     stress       :     58.02s CPU      1.90s WALL (       1 calls)

     Called by init_run:
     wfcinit      :     67.14s CPU      2.18s WALL (       1 calls)
     wfcinit:atom :      0.11s CPU      0.00s WALL (       1 calls)
     wfcinit:wfcr :     66.50s CPU      2.16s WALL (       1 calls)
     potinit      :     44.48s CPU      1.66s WALL (       1 calls)
     hinit0       :    121.31s CPU      6.77s WALL (       1 calls)

     Called by electrons:
     c_bands      :    656.78s CPU     21.06s WALL (      14 calls)
     sum_band     :    218.47s CPU      8.56s WALL (      14 calls)
     v_of_rho     :     40.93s CPU      1.38s WALL (      15 calls)
     v_h          :      2.77s CPU      0.09s WALL (      15 calls)
     v_xc         :     42.91s CPU      1.44s WALL (      17 calls)
     newd         :    145.13s CPU      4.86s WALL (      15 calls)
     PAW_pot      :    169.18s CPU      5.65s WALL (      15 calls)
     mix_rho      :      6.48s CPU      0.21s WALL (      14 calls)

     Called by c_bands:
     init_us_2    :      0.59s CPU      0.02s WALL (      29 calls)
     init_us_2:cp :      0.55s CPU      0.02s WALL (      29 calls)
     regterg      :    653.58s CPU     20.95s WALL (      14 calls)

     Called by sum_band:
     sum_band:wei :      0.03s CPU      0.00s WALL (      14 calls)
     sum_band:loo :    103.12s CPU      3.28s WALL (      14 calls)
     sum_band:buf :      0.01s CPU      0.00s WALL (      14 calls)
     sum_band:ini :      0.29s CPU      0.01s WALL (      14 calls)
     sum_band:cal :      0.31s CPU      0.01s WALL (      14 calls)
     sum_band:bec :      0.13s CPU      0.00s WALL (      14 calls)
     addusdens    :    110.33s CPU      5.11s WALL (      14 calls)
     addusd:skk   :      0.63s CPU      0.04s WALL (      56 calls)
     addusd:dgemm :      9.91s CPU      1.84s WALL (      56 calls)
     addusd:qvan2 :     96.89s CPU      3.12s WALL (      56 calls)

     Called by *egterg:
     rdiaghg      :     22.95s CPU      0.77s WALL (      88 calls)
     regterg:over :      0.95s CPU      0.03s WALL (      74 calls)
     regterg:upda :      1.26s CPU      0.04s WALL (      74 calls)
     regterg:last :      2.80s CPU      0.10s WALL (      30 calls)
     h_psi        :    685.21s CPU     21.93s WALL (      89 calls)
     s_psi        :      0.46s CPU      0.01s WALL (      89 calls)
     g_psi        :      0.10s CPU      0.00s WALL (      74 calls)

     Called by h_psi:
     h_psi:calbec :      1.15s CPU      0.04s WALL (      89 calls)
     vloc_psi     :    682.44s CPU     21.84s WALL (      89 calls)
     add_vuspsi   :      0.86s CPU      0.03s WALL (      89 calls)

     General routines
     calbec       :      1.39s CPU      0.05s WALL (     108 calls)
     fft          :    108.06s CPU      3.90s WALL (     183 calls)
     ffts         :     27.92s CPU      1.10s WALL (      29 calls)
     fftw         :    634.85s CPU     20.14s WALL (    4156 calls)
     interpolate  :     31.93s CPU      1.24s WALL (      15 calls)
 
     Parallel routines

     PAW routines
     PAW_pot      :    169.18s CPU      5.65s WALL (      15 calls)
 
     PWSCF        :  26m 3.94s CPU     56.13s WALL

 
   This run was terminated on:  13:57:46  21May2023            

=------------------------------------------------------------------------------=
   JOB DONE.
=------------------------------------------------------------------------------=
