
     Program PWSCF v.7.0 starts on 21May2023 at  7:31:13 

     This program is part of the open-source Quantum ESPRESSO suite
     for quantum simulation of materials; please cite
         "P. Giannozzi et al., J. Phys.:Condens. Matter 21 395502 (2009);
         "P. Giannozzi et al., J. Phys.:Condens. Matter 29 465901 (2017);
         "P. Giannozzi et al., J. Chem. Phys. 152 154105 (2020);
          URL http://www.quantum-espresso.org", 
     in publications or presentations arising from this work. More details at
     http://www.quantum-espresso.org/quote

     Parallel version (MPI & OpenMP), running on      32 processor cores
     Number of MPI processes:                 1
     Threads/MPI process:                    32

     MPI processes distributed on     1 nodes
     143516 MiB available memory on the printing compute node when the environment starts
 
     Reading input from espresso_24508.pwi
Warning: card &CELL ignored
Warning: card / ignored

     Current dimensions of program PWSCF are:
     Max number of different atomic species (ntypx) = 10
     Max number of k-points (npk) =  40000
     Max angular momentum in pseudopotentials (lmaxx) =  4
     file Fe.pbe-spn-kjpaw_psl.0.2.1.UPF: wavefunction(s)  3D renormalized
     file O.pbe-n-kjpaw_psl.0.1.UPF: wavefunction(s)  2P renormalized

     gamma-point specific algorithms are used
     Message from routine setup:
     using ibrav=0 with symmetry is DISCOURAGED, use correct ibrav instead

     Subspace diagonalization in iterative solution of the eigenvalue problem:
     a serial algorithm will be used

 
     G-vector sticks info
     --------------------
     sticks:   dense  smooth     PW     G-vecs:    dense   smooth      PW
     Sum        1893     945    241                88495    31265    3933
 
     Using Slab Decomposition
 


     bravais-lattice index     =            0
     lattice parameter (alat)  =       9.8886  a.u.
     unit-cell volume          =    1408.8604 (a.u.)^3
     number of atoms/cell      =           20
     number of atomic types    =            3
     number of electrons       =       184.00
     number of Kohn-Sham states=          110
     kinetic-energy cutoff     =      30.0000  Ry
     charge density cutoff     =     240.0000  Ry
     scf convergence threshold =      1.0E-06
     mixing beta               =       0.7000
     number of iterations used =            8  plain     mixing
     Exchange-correlation= SLA  PW   PBX  PBC
                           (   1   4   3   4   0   0   0)

     celldm(1)=   9.888563  celldm(2)=   0.000000  celldm(3)=   0.000000
     celldm(4)=   0.000000  celldm(5)=   0.000000  celldm(6)=   0.000000

     crystal axes: (cart. coord. in units of alat)
               a(1) = (   1.000000   0.000000   0.000000 )  
               a(2) = (   0.000000   1.011133   0.000000 )  
               a(3) = (   0.000000   0.000000   1.440987 )  

     reciprocal axes: (cart. coord. in units 2 pi/alat)
               b(1) = (  1.000000  0.000000  0.000000 )  
               b(2) = (  0.000000  0.988990  0.000000 )  
               b(3) = (  0.000000  0.000000  0.693969 )  


     PseudoPot. # 1 for Ti read from file:
     /home/pragov/projects/rrg-bengioy-ad/pragov/crystal_structure_design/SSSP/ti_pbe_v1.4.uspp.F.UPF
     MD5 check sum: 88a00a6731bd790ddea75d31a80cb452
     Pseudo is Ultrasoft + core correction, Zval = 12.0
     Generated by new atomic code, or converted to UPF format
     Using radial grid of  851 points,  6 beta functions with: 
                l(1) =   0
                l(2) =   0
                l(3) =   1
                l(4) =   1
                l(5) =   2
                l(6) =   2
     Q(r) pseudized with  6 coefficients,  rinner =    1.000   1.000   1.000
                                                       1.000   1.000

     PseudoPot. # 2 for Fe read from file:
     /home/pragov/projects/rrg-bengioy-ad/pragov/crystal_structure_design/SSSP/Fe.pbe-spn-kjpaw_psl.0.2.1.UPF
     MD5 check sum: e86618425769142926afa95317d90200
     Pseudo is Projector augmented-wave + core cor, Zval = 16.0
     Generated using "atomic" code by A. Dal Corso  v.5.0.99 svn rev. 10869
     Shape of augmentation charge: PSQ
     Using radial grid of 1191 points,  6 beta functions with: 
                l(1) =   0
                l(2) =   0
                l(3) =   1
                l(4) =   1
                l(5) =   2
                l(6) =   2
     Q(r) pseudized with 0 coefficients 


     PseudoPot. # 3 for O  read from file:
     /home/pragov/projects/rrg-bengioy-ad/pragov/crystal_structure_design/SSSP/O.pbe-n-kjpaw_psl.0.1.UPF
     MD5 check sum: 0234752ac141de4415c5fc33072bef88
     Pseudo is Projector augmented-wave + core cor, Zval =  6.0
     Generated using "atomic" code by A. Dal Corso  v.5.0.99 svn rev. 10869
     Shape of augmentation charge: BESSEL
     Using radial grid of 1095 points,  4 beta functions with: 
                l(1) =   0
                l(2) =   0
                l(3) =   1
                l(4) =   1
     Q(r) pseudized with 0 coefficients 


     atomic species   valence    mass     pseudopotential
        Ti            12.00    47.86700     Ti( 1.00)
        Fe            16.00    55.84500     Fe( 1.00)
        O              6.00    15.99900     O ( 1.00)

      8 Sym. Ops., with inversion, found ( 6 have fractional translation)


                                    s                        frac. trans.

      isym =  1     identity                                     

 cryst.   s( 1) = (     1          0          0      )
                  (     0          1          0      )
                  (     0          0          1      )

 cart.    s( 1) = (  1.0000000  0.0000000  0.0000000 )
                  (  0.0000000  1.0000000  0.0000000 )
                  (  0.0000000  0.0000000  1.0000000 )


      isym =  2     180 deg rotation - cart. axis [0,0,1]        

 cryst.   s( 2) = (    -1          0          0      )    f =(  0.0000000 )
                  (     0         -1          0      )       (  0.0000000 )
                  (     0          0          1      )       ( -0.5000000 )

 cart.    s( 2) = ( -1.0000000  0.0000000  0.0000000 )    f =(  0.0000000 )
                  (  0.0000000 -1.0000000  0.0000000 )       (  0.0000000 )
                  (  0.0000000  0.0000000  1.0000000 )       ( -0.7204936 )


      isym =  3     180 deg rotation - cart. axis [0,1,0]        

 cryst.   s( 3) = (    -1          0          0      )    f =(  0.5000000 )
                  (     0          1          0      )       ( -0.5000000 )
                  (     0          0         -1      )       (  0.5000000 )

 cart.    s( 3) = ( -1.0000000  0.0000000  0.0000000 )    f =(  0.5000000 )
                  (  0.0000000  1.0000000  0.0000000 )       ( -0.5055665 )
                  (  0.0000000  0.0000000 -1.0000000 )       (  0.7204936 )


      isym =  4     180 deg rotation - cart. axis [1,0,0]        

 cryst.   s( 4) = (     1          0          0      )    f =(  0.5000000 )
                  (     0         -1          0      )       (  0.5000000 )
                  (     0          0         -1      )       (  0.0000000 )

 cart.    s( 4) = (  1.0000000  0.0000000  0.0000000 )    f =(  0.5000000 )
                  (  0.0000000 -1.0000000  0.0000000 )       (  0.5055665 )
                  (  0.0000000  0.0000000 -1.0000000 )       (  0.0000000 )


      isym =  5     inversion                                    

 cryst.   s( 5) = (    -1          0          0      )
                  (     0         -1          0      )
                  (     0          0         -1      )

 cart.    s( 5) = ( -1.0000000  0.0000000  0.0000000 )
                  (  0.0000000 -1.0000000  0.0000000 )
                  (  0.0000000  0.0000000 -1.0000000 )


      isym =  6     inv. 180 deg rotation - cart. axis [0,0,1]   

 cryst.   s( 6) = (     1          0          0      )    f =(  0.0000000 )
                  (     0          1          0      )       (  0.0000000 )
                  (     0          0         -1      )       (  0.5000000 )

 cart.    s( 6) = (  1.0000000  0.0000000  0.0000000 )    f =(  0.0000000 )
                  (  0.0000000  1.0000000  0.0000000 )       (  0.0000000 )
                  (  0.0000000  0.0000000 -1.0000000 )       (  0.7204936 )


      isym =  7     inv. 180 deg rotation - cart. axis [0,1,0]   

 cryst.   s( 7) = (     1          0          0      )    f =(  0.5000000 )
                  (     0         -1          0      )       (  0.5000000 )
                  (     0          0          1      )       ( -0.5000000 )

 cart.    s( 7) = (  1.0000000  0.0000000  0.0000000 )    f =(  0.5000000 )
                  (  0.0000000 -1.0000000  0.0000000 )       (  0.5055665 )
                  (  0.0000000  0.0000000  1.0000000 )       ( -0.7204936 )


      isym =  8     inv. 180 deg rotation - cart. axis [1,0,0]   

 cryst.   s( 8) = (    -1          0          0      )    f =(  0.5000000 )
                  (     0          1          0      )       ( -0.5000000 )
                  (     0          0          1      )       (  0.0000000 )

 cart.    s( 8) = ( -1.0000000  0.0000000  0.0000000 )    f =(  0.5000000 )
                  (  0.0000000  1.0000000  0.0000000 )       ( -0.5055665 )
                  (  0.0000000  0.0000000  1.0000000 )       (  0.0000000 )


   Cartesian axes

     site n.     atom                  positions (alat units)
         1           Ti  tau(   1) = (   0.5000000   0.0000000   0.0000000  )
         2           Ti  tau(   2) = (   0.0000000   0.5055665   0.0000000  )
         3           Ti  tau(   3) = (   0.0000000   0.5055665   0.7204936  )
         4           Ti  tau(   4) = (   0.5000000   0.0000000   0.7204936  )
         5           Fe  tau(   5) = (   0.5079900   0.4655732   1.0807404  )
         6           Fe  tau(   6) = (   0.0079900   0.0399933   0.3602468  )
         7           Fe  tau(   7) = (   0.9920100   0.9711397   1.0807404  )
         8           Fe  tau(   8) = (   0.4920100   0.5455599   0.3602468  )
         9           O   tau(   9) = (   0.1052460   0.4481696   0.3602468  )
        10           O   tau(  10) = (   0.6052460   0.0573970   1.0807404  )
        11           O   tau(  11) = (   0.3947540   0.9537361   0.3602468  )
        12           O   tau(  12) = (   0.8947540   0.5629635   1.0807404  )
        13           O   tau(  13) = (   0.8231900   0.8272049   0.6387652  )
        14           O   tau(  14) = (   0.1768100   0.1839281   0.8022221  )
        15           O   tau(  15) = (   0.8231900   0.8272049   0.0817285  )
        16           O   tau(  16) = (   0.3231900   0.6894947   1.3592588  )
        17           O   tau(  17) = (   0.3231900   0.6894947   0.8022221  )
        18           O   tau(  18) = (   0.6768100   0.3216384   0.0817285  )
        19           O   tau(  19) = (   0.1768100   0.1839281   1.3592588  )
        20           O   tau(  20) = (   0.6768100   0.3216384   0.6387652  )

   Crystallographic axes

     site n.     atom                  positions (cryst. coord.)
         1           Ti  tau(   1) = (  0.5000000  0.0000000  0.0000000  )
         2           Ti  tau(   2) = (  0.0000000  0.5000000  0.0000000  )
         3           Ti  tau(   3) = (  0.0000000  0.5000000  0.5000000  )
         4           Ti  tau(   4) = (  0.5000000  0.0000000  0.5000000  )
         5           Fe  tau(   5) = (  0.5079900  0.4604470  0.7500000  )
         6           Fe  tau(   6) = (  0.0079900  0.0395530  0.2500000  )
         7           Fe  tau(   7) = (  0.9920100  0.9604470  0.7500000  )
         8           Fe  tau(   8) = (  0.4920100  0.5395530  0.2500000  )
         9           O   tau(   9) = (  0.1052460  0.4432350  0.2500000  )
        10           O   tau(  10) = (  0.6052460  0.0567650  0.7500000  )
        11           O   tau(  11) = (  0.3947540  0.9432350  0.2500000  )
        12           O   tau(  12) = (  0.8947540  0.5567650  0.7500000  )
        13           O   tau(  13) = (  0.8231900  0.8180970  0.4432830  )
        14           O   tau(  14) = (  0.1768100  0.1819030  0.5567170  )
        15           O   tau(  15) = (  0.8231900  0.8180970  0.0567170  )
        16           O   tau(  16) = (  0.3231900  0.6819030  0.9432830  )
        17           O   tau(  17) = (  0.3231900  0.6819030  0.5567170  )
        18           O   tau(  18) = (  0.6768100  0.3180970  0.0567170  )
        19           O   tau(  19) = (  0.1768100  0.1819030  0.9432830  )
        20           O   tau(  20) = (  0.6768100  0.3180970  0.4432830  )

     number of k points=     1  Methfessel-Paxton smearing, width (Ry)=  0.0010
                       cart. coord. in units 2pi/alat
        k(    1) = (   0.0000000   0.0000000   0.0000000), wk =   2.0000000

                       cryst. coord.
        k(    1) = (   0.0000000   0.0000000   0.0000000), wk =   2.0000000

     Dense  grid:    44248 G-vectors     FFT dimensions: (  50,  50,  72)

     Smooth grid:    15633 G-vectors     FFT dimensions: (  36,  36,  50)

     Dynamical RAM for                 wfc:       3.28 MB

     Dynamical RAM for     wfc (w. buffer):       3.28 MB

     Dynamical RAM for           str. fact:       2.03 MB

     Dynamical RAM for           local pot:       0.00 MB

     Dynamical RAM for          nlocal pot:       7.16 MB

     Dynamical RAM for                qrad:       3.73 MB

     Dynamical RAM for          rho,v,vnew:       6.15 MB

     Dynamical RAM for               rhoin:       2.05 MB

     Dynamical RAM for            rho*nmix:      10.80 MB

     Dynamical RAM for           G-vectors:       2.65 MB

     Dynamical RAM for          h,s,v(r/c):       1.11 MB

     Dynamical RAM for          <psi|beta>:       0.20 MB

     Dynamical RAM for                 psi:       6.56 MB

     Dynamical RAM for                hpsi:       6.56 MB

     Dynamical RAM for                spsi:       6.56 MB

     Dynamical RAM for      wfcinit/wfcrot:       8.80 MB

     Dynamical RAM for           addusdens:     133.68 MB

     Dynamical RAM for          addusforce:     148.92 MB

     Dynamical RAM for         addusstress:     135.71 MB

     Estimated static dynamical RAM per process >      36.61 MB

     Estimated max dynamical RAM per process >     196.34 MB

     Check: negative core charge=   -0.000126

     Initial potential from superposition of free atoms

     starting charge     179.9981, renormalised to     184.0000

     negative rho (up, down):  7.191E-03 0.000E+00
     Starting wfcs are  140 randomized atomic wfcs
     Checking if some PAW data can be deallocated... 

     total cpu time spent up to now is        8.4 secs

     Self-consistent Calculation

     iteration #  1     ecut=    30.00 Ry     beta= 0.70
     Davidson diagonalization with overlap

---- Real-time Memory Report at c_bands before calling an iterative solver
           608 MiB given to the printing process from OS
             0 MiB allocation reported by mallinfo(arena+hblkhd)
        143161 MiB available memory on the node where the printing process lives
------------------
     ethr =  1.00E-02,  avg # of iterations =  2.0

     negative rho (up, down):  2.313E-03 0.000E+00

     total cpu time spent up to now is        9.8 secs

     total energy              =   -2182.61330985 Ry
     estimated scf accuracy    <     133.74922896 Ry

     iteration #  2     ecut=    30.00 Ry     beta= 0.70
     Davidson diagonalization with overlap

---- Real-time Memory Report at c_bands before calling an iterative solver
           647 MiB given to the printing process from OS
             0 MiB allocation reported by mallinfo(arena+hblkhd)
        143136 MiB available memory on the node where the printing process lives
------------------
     ethr =  1.00E-02,  avg # of iterations =  5.0

     negative rho (up, down):  5.082E-04 0.000E+00

     total cpu time spent up to now is       11.8 secs

     total energy              =   -2262.34801848 Ry
     estimated scf accuracy    <     620.26156646 Ry

     iteration #  3     ecut=    30.00 Ry     beta= 0.70
     Davidson diagonalization with overlap

---- Real-time Memory Report at c_bands before calling an iterative solver
           651 MiB given to the printing process from OS
             0 MiB allocation reported by mallinfo(arena+hblkhd)
        143111 MiB available memory on the node where the printing process lives
------------------
     ethr =  1.00E-02,  avg # of iterations =  4.0

     negative rho (up, down):  1.272E-03 0.000E+00

     total cpu time spent up to now is       13.5 secs

     total energy              =   -2310.88040941 Ry
     estimated scf accuracy    <     113.10293212 Ry

     iteration #  4     ecut=    30.00 Ry     beta= 0.70
     Davidson diagonalization with overlap

---- Real-time Memory Report at c_bands before calling an iterative solver
           655 MiB given to the printing process from OS
             0 MiB allocation reported by mallinfo(arena+hblkhd)
        143201 MiB available memory on the node where the printing process lives
------------------
     ethr =  1.00E-02,  avg # of iterations =  1.0

     negative rho (up, down):  1.182E-03 0.000E+00

     total cpu time spent up to now is       14.8 secs

     total energy              =   -2309.82866354 Ry
     estimated scf accuracy    <      89.04061447 Ry

     iteration #  5     ecut=    30.00 Ry     beta= 0.70
     Davidson diagonalization with overlap

---- Real-time Memory Report at c_bands before calling an iterative solver
           655 MiB given to the printing process from OS
             0 MiB allocation reported by mallinfo(arena+hblkhd)
        143162 MiB available memory on the node where the printing process lives
------------------
     ethr =  1.00E-02,  avg # of iterations =  1.0

     negative rho (up, down):  5.578E-04 0.000E+00

     total cpu time spent up to now is       16.0 secs

     total energy              =   -2305.22487888 Ry
     estimated scf accuracy    <      83.33334475 Ry

     iteration #  6     ecut=    30.00 Ry     beta= 0.70
     Davidson diagonalization with overlap

---- Real-time Memory Report at c_bands before calling an iterative solver
           655 MiB given to the printing process from OS
             0 MiB allocation reported by mallinfo(arena+hblkhd)
        143162 MiB available memory on the node where the printing process lives
------------------
     ethr =  1.00E-02,  avg # of iterations =  1.0

     negative rho (up, down):  1.122E-03 0.000E+00

     total cpu time spent up to now is       17.3 secs

     total energy              =   -2300.41960353 Ry
     estimated scf accuracy    <      75.70699046 Ry

     iteration #  7     ecut=    30.00 Ry     beta= 0.70
     Davidson diagonalization with overlap

---- Real-time Memory Report at c_bands before calling an iterative solver
           655 MiB given to the printing process from OS
             0 MiB allocation reported by mallinfo(arena+hblkhd)
        143165 MiB available memory on the node where the printing process lives
------------------
     ethr =  1.00E-02,  avg # of iterations =  1.0

     negative rho (up, down):  1.546E-03 0.000E+00

     total cpu time spent up to now is       18.6 secs

     total energy              =   -2298.39655512 Ry
     estimated scf accuracy    <      62.22274884 Ry

     iteration #  8     ecut=    30.00 Ry     beta= 0.70
     Davidson diagonalization with overlap

---- Real-time Memory Report at c_bands before calling an iterative solver
           655 MiB given to the printing process from OS
             0 MiB allocation reported by mallinfo(arena+hblkhd)
        143165 MiB available memory on the node where the printing process lives
------------------
     ethr =  1.00E-02,  avg # of iterations =  1.0

     negative rho (up, down):  2.092E-03 0.000E+00

     total cpu time spent up to now is       20.9 secs

     total energy              =   -2296.68932135 Ry
     estimated scf accuracy    <      45.28016517 Ry

     iteration #  9     ecut=    30.00 Ry     beta= 0.70
     Davidson diagonalization with overlap

---- Real-time Memory Report at c_bands before calling an iterative solver
           655 MiB given to the printing process from OS
             0 MiB allocation reported by mallinfo(arena+hblkhd)
        143150 MiB available memory on the node where the printing process lives
------------------
     ethr =  1.00E-02,  avg # of iterations =  4.0

     negative rho (up, down):  2.386E-03 0.000E+00

     total cpu time spent up to now is       22.4 secs

     total energy              =   -2296.24711579 Ry
     estimated scf accuracy    <      30.48983935 Ry

     iteration # 10     ecut=    30.00 Ry     beta= 0.70
     Davidson diagonalization with overlap

---- Real-time Memory Report at c_bands before calling an iterative solver
           655 MiB given to the printing process from OS
             0 MiB allocation reported by mallinfo(arena+hblkhd)
        143156 MiB available memory on the node where the printing process lives
------------------
     ethr =  1.00E-02,  avg # of iterations =  1.0

     negative rho (up, down):  8.712E-03 0.000E+00

     total cpu time spent up to now is       23.6 secs

     total energy              =   -2282.18709334 Ry
     estimated scf accuracy    <      22.30727439 Ry

     iteration # 11     ecut=    30.00 Ry     beta= 0.70
     Davidson diagonalization with overlap

---- Real-time Memory Report at c_bands before calling an iterative solver
           655 MiB given to the printing process from OS
             0 MiB allocation reported by mallinfo(arena+hblkhd)
        143156 MiB available memory on the node where the printing process lives
------------------
     ethr =  1.00E-02,  avg # of iterations =  6.0

     negative rho (up, down):  3.435E-03 0.000E+00

     total cpu time spent up to now is       25.3 secs

     total energy              =   -2287.31024826 Ry
     estimated scf accuracy    <     176.20199617 Ry

     iteration # 12     ecut=    30.00 Ry     beta= 0.70
     Davidson diagonalization with overlap

---- Real-time Memory Report at c_bands before calling an iterative solver
           655 MiB given to the printing process from OS
             0 MiB allocation reported by mallinfo(arena+hblkhd)
        143182 MiB available memory on the node where the printing process lives
------------------
     ethr =  1.00E-02,  avg # of iterations =  5.0

     negative rho (up, down):  3.717E-03 0.000E+00

     total cpu time spent up to now is       26.8 secs

     total energy              =   -2294.17770171 Ry
     estimated scf accuracy    <      12.59671761 Ry

     iteration # 13     ecut=    30.00 Ry     beta= 0.70
     Davidson diagonalization with overlap

---- Real-time Memory Report at c_bands before calling an iterative solver
           655 MiB given to the printing process from OS
             0 MiB allocation reported by mallinfo(arena+hblkhd)
        143182 MiB available memory on the node where the printing process lives
------------------
     ethr =  6.85E-03,  avg # of iterations =  1.0

     negative rho (up, down):  3.520E-03 0.000E+00

     total cpu time spent up to now is       28.1 secs

     total energy              =   -2294.04897763 Ry
     estimated scf accuracy    <      14.58210073 Ry

     iteration # 14     ecut=    30.00 Ry     beta= 0.70
     Davidson diagonalization with overlap

---- Real-time Memory Report at c_bands before calling an iterative solver
           655 MiB given to the printing process from OS
             0 MiB allocation reported by mallinfo(arena+hblkhd)
        143183 MiB available memory on the node where the printing process lives
------------------
     ethr =  6.85E-03,  avg # of iterations =  3.0

     negative rho (up, down):  3.838E-03 0.000E+00

     total cpu time spent up to now is       29.3 secs

     total energy              =   -2294.13920421 Ry
     estimated scf accuracy    <       6.63585782 Ry

     iteration # 15     ecut=    30.00 Ry     beta= 0.70
     Davidson diagonalization with overlap

---- Real-time Memory Report at c_bands before calling an iterative solver
           655 MiB given to the printing process from OS
             0 MiB allocation reported by mallinfo(arena+hblkhd)
        143185 MiB available memory on the node where the printing process lives
------------------
     ethr =  3.61E-03,  avg # of iterations =  1.0

     negative rho (up, down):  3.931E-03 0.000E+00

     total cpu time spent up to now is       30.6 secs

     total energy              =   -2294.04625166 Ry
     estimated scf accuracy    <      13.56262195 Ry

     iteration # 16     ecut=    30.00 Ry     beta= 0.70
     Davidson diagonalization with overlap

---- Real-time Memory Report at c_bands before calling an iterative solver
           655 MiB given to the printing process from OS
             0 MiB allocation reported by mallinfo(arena+hblkhd)
        143184 MiB available memory on the node where the printing process lives
------------------
     ethr =  3.61E-03,  avg # of iterations =  1.0

     negative rho (up, down):  4.016E-03 0.000E+00

     total cpu time spent up to now is       31.8 secs

     total energy              =   -2294.13009372 Ry
     estimated scf accuracy    <       5.92113245 Ry

     iteration # 17     ecut=    30.00 Ry     beta= 0.70
     Davidson diagonalization with overlap

---- Real-time Memory Report at c_bands before calling an iterative solver
           655 MiB given to the printing process from OS
             0 MiB allocation reported by mallinfo(arena+hblkhd)
        143185 MiB available memory on the node where the printing process lives
------------------
     ethr =  3.22E-03,  avg # of iterations =  1.0

     negative rho (up, down):  4.167E-03 0.000E+00

     total cpu time spent up to now is       33.0 secs

     total energy              =   -2293.98346377 Ry
     estimated scf accuracy    <       5.08908682 Ry

     iteration # 18     ecut=    30.00 Ry     beta= 0.70
     Davidson diagonalization with overlap

---- Real-time Memory Report at c_bands before calling an iterative solver
           655 MiB given to the printing process from OS
             0 MiB allocation reported by mallinfo(arena+hblkhd)
        143163 MiB available memory on the node where the printing process lives
------------------
     ethr =  2.77E-03,  avg # of iterations =  1.0

     negative rho (up, down):  4.341E-03 0.000E+00

     total cpu time spent up to now is       34.3 secs

     total energy              =   -2293.89903870 Ry
     estimated scf accuracy    <       4.41996920 Ry

     iteration # 19     ecut=    30.00 Ry     beta= 0.70
     Davidson diagonalization with overlap

---- Real-time Memory Report at c_bands before calling an iterative solver
           655 MiB given to the printing process from OS
             0 MiB allocation reported by mallinfo(arena+hblkhd)
        143163 MiB available memory on the node where the printing process lives
------------------
     ethr =  2.40E-03,  avg # of iterations =  1.0

     negative rho (up, down):  5.848E-03 0.000E+00

     total cpu time spent up to now is       35.6 secs

     total energy              =   -2292.27882449 Ry
     estimated scf accuracy    <       4.01946026 Ry

     iteration # 20     ecut=    30.00 Ry     beta= 0.70
     Davidson diagonalization with overlap

---- Real-time Memory Report at c_bands before calling an iterative solver
           656 MiB given to the printing process from OS
             0 MiB allocation reported by mallinfo(arena+hblkhd)
        143164 MiB available memory on the node where the printing process lives
------------------
     ethr =  2.18E-03,  avg # of iterations =  3.0

     negative rho (up, down):  7.811E-03 0.000E+00

     total cpu time spent up to now is       37.0 secs

     total energy              =   -2287.87148131 Ry
     estimated scf accuracy    <      33.31441056 Ry

     iteration # 21     ecut=    30.00 Ry     beta= 0.70
     Davidson diagonalization with overlap

---- Real-time Memory Report at c_bands before calling an iterative solver
           656 MiB given to the printing process from OS
             0 MiB allocation reported by mallinfo(arena+hblkhd)
        143166 MiB available memory on the node where the printing process lives
------------------
     ethr =  2.18E-03,  avg # of iterations =  6.0

     negative rho (up, down):  5.612E-03 0.000E+00

     total cpu time spent up to now is       38.7 secs

     total energy              =   -2284.42432559 Ry
     estimated scf accuracy    <     155.20331682 Ry

     iteration # 22     ecut=    30.00 Ry     beta= 0.70
     Davidson diagonalization with overlap

---- Real-time Memory Report at c_bands before calling an iterative solver
           656 MiB given to the printing process from OS
             0 MiB allocation reported by mallinfo(arena+hblkhd)
        143196 MiB available memory on the node where the printing process lives
------------------
     ethr =  2.18E-03,  avg # of iterations =  6.0

     negative rho (up, down):  5.550E-03 0.000E+00

     total cpu time spent up to now is       40.5 secs

     total energy              =   -2290.13513468 Ry
     estimated scf accuracy    <      52.99246723 Ry

     iteration # 23     ecut=    30.00 Ry     beta= 0.70
     Davidson diagonalization with overlap

---- Real-time Memory Report at c_bands before calling an iterative solver
           656 MiB given to the printing process from OS
             0 MiB allocation reported by mallinfo(arena+hblkhd)
        143196 MiB available memory on the node where the printing process lives
------------------
     ethr =  2.18E-03,  avg # of iterations =  2.0

     negative rho (up, down):  5.496E-03 0.000E+00

     total cpu time spent up to now is       41.8 secs

     total energy              =   -2292.07652714 Ry
     estimated scf accuracy    <      46.02105240 Ry

     iteration # 24     ecut=    30.00 Ry     beta= 0.70
     Davidson diagonalization with overlap

---- Real-time Memory Report at c_bands before calling an iterative solver
           657 MiB given to the printing process from OS
             0 MiB allocation reported by mallinfo(arena+hblkhd)
        143189 MiB available memory on the node where the printing process lives
------------------
     ethr =  2.18E-03,  avg # of iterations =  5.0

     negative rho (up, down):  5.582E-03 0.000E+00

     total cpu time spent up to now is       43.1 secs

     total energy              =   -2292.68601960 Ry
     estimated scf accuracy    <      24.70628005 Ry

     iteration # 25     ecut=    30.00 Ry     beta= 0.70
     Davidson diagonalization with overlap

---- Real-time Memory Report at c_bands before calling an iterative solver
           657 MiB given to the printing process from OS
             0 MiB allocation reported by mallinfo(arena+hblkhd)
        143189 MiB available memory on the node where the printing process lives
------------------
     ethr =  2.18E-03,  avg # of iterations =  1.0

     negative rho (up, down):  5.686E-03 0.000E+00

     total cpu time spent up to now is       44.3 secs

     total energy              =   -2293.02325143 Ry
     estimated scf accuracy    <       4.37666268 Ry

     iteration # 26     ecut=    30.00 Ry     beta= 0.70
     Davidson diagonalization with overlap

---- Real-time Memory Report at c_bands before calling an iterative solver
           657 MiB given to the printing process from OS
             0 MiB allocation reported by mallinfo(arena+hblkhd)
        143190 MiB available memory on the node where the printing process lives
------------------
     ethr =  2.18E-03,  avg # of iterations =  1.0

     negative rho (up, down):  5.881E-03 0.000E+00

     total cpu time spent up to now is       45.5 secs

     total energy              =   -2293.08747965 Ry
     estimated scf accuracy    <       1.69982228 Ry

     iteration # 27     ecut=    30.00 Ry     beta= 0.70
     Davidson diagonalization with overlap

---- Real-time Memory Report at c_bands before calling an iterative solver
           657 MiB given to the printing process from OS
             0 MiB allocation reported by mallinfo(arena+hblkhd)
        143191 MiB available memory on the node where the printing process lives
------------------
     ethr =  9.24E-04,  avg # of iterations =  1.0

     negative rho (up, down):  6.055E-03 0.000E+00

     total cpu time spent up to now is       46.8 secs

     total energy              =   -2293.07411818 Ry
     estimated scf accuracy    <       0.75070948 Ry

     iteration # 28     ecut=    30.00 Ry     beta= 0.70
     Davidson diagonalization with overlap

---- Real-time Memory Report at c_bands before calling an iterative solver
           657 MiB given to the printing process from OS
             0 MiB allocation reported by mallinfo(arena+hblkhd)
        143191 MiB available memory on the node where the printing process lives
------------------
     ethr =  4.08E-04,  avg # of iterations =  1.0

     negative rho (up, down):  6.198E-03 0.000E+00

     total cpu time spent up to now is       48.0 secs

     total energy              =   -2293.05120592 Ry
     estimated scf accuracy    <       0.61368599 Ry

     iteration # 29     ecut=    30.00 Ry     beta= 0.70
     Davidson diagonalization with overlap

---- Real-time Memory Report at c_bands before calling an iterative solver
           657 MiB given to the printing process from OS
             0 MiB allocation reported by mallinfo(arena+hblkhd)
        143192 MiB available memory on the node where the printing process lives
------------------
     ethr =  3.34E-04,  avg # of iterations =  2.0

     negative rho (up, down):  6.752E-03 0.000E+00

     total cpu time spent up to now is       49.2 secs

     total energy              =   -2292.99061402 Ry
     estimated scf accuracy    <       0.38431912 Ry

     iteration # 30     ecut=    30.00 Ry     beta= 0.70
     Davidson diagonalization with overlap

---- Real-time Memory Report at c_bands before calling an iterative solver
           657 MiB given to the printing process from OS
             0 MiB allocation reported by mallinfo(arena+hblkhd)
        143171 MiB available memory on the node where the printing process lives
------------------
     ethr =  2.09E-04,  avg # of iterations =  8.0

     negative rho (up, down):  7.046E-03 0.000E+00

     total cpu time spent up to now is       50.8 secs

     total energy              =   -2292.85224317 Ry
     estimated scf accuracy    <       0.87265525 Ry

     iteration # 31     ecut=    30.00 Ry     beta= 0.70
     Davidson diagonalization with overlap

---- Real-time Memory Report at c_bands before calling an iterative solver
           657 MiB given to the printing process from OS
             0 MiB allocation reported by mallinfo(arena+hblkhd)
        143169 MiB available memory on the node where the printing process lives
------------------
     ethr =  2.09E-04,  avg # of iterations =  7.0

     negative rho (up, down):  6.603E-03 0.000E+00

     total cpu time spent up to now is       52.2 secs

     total energy              =   -2292.26630347 Ry
     estimated scf accuracy    <      16.67196580 Ry

     iteration # 32     ecut=    30.00 Ry     beta= 0.70
     Davidson diagonalization with overlap

---- Real-time Memory Report at c_bands before calling an iterative solver
           657 MiB given to the printing process from OS
             0 MiB allocation reported by mallinfo(arena+hblkhd)
        143168 MiB available memory on the node where the printing process lives
------------------
     ethr =  2.09E-04,  avg # of iterations =  7.0

     negative rho (up, down):  6.682E-03 0.000E+00

     total cpu time spent up to now is       53.7 secs

     total energy              =   -2293.01865793 Ry
     estimated scf accuracy    <       0.10958138 Ry

     iteration # 33     ecut=    30.00 Ry     beta= 0.70
     Davidson diagonalization with overlap

---- Real-time Memory Report at c_bands before calling an iterative solver
           657 MiB given to the printing process from OS
             0 MiB allocation reported by mallinfo(arena+hblkhd)
        143187 MiB available memory on the node where the printing process lives
------------------
     ethr =  5.96E-05,  avg # of iterations =  2.0

     negative rho (up, down):  6.784E-03 0.000E+00

     total cpu time spent up to now is       55.0 secs

     total energy              =   -2293.02958186 Ry
     estimated scf accuracy    <       0.06596587 Ry

     iteration # 34     ecut=    30.00 Ry     beta= 0.70
     Davidson diagonalization with overlap

---- Real-time Memory Report at c_bands before calling an iterative solver
           657 MiB given to the printing process from OS
             0 MiB allocation reported by mallinfo(arena+hblkhd)
        143193 MiB available memory on the node where the printing process lives
------------------
     ethr =  3.59E-05,  avg # of iterations =  2.0

     negative rho (up, down):  6.785E-03 0.000E+00

     total cpu time spent up to now is       56.2 secs

     total energy              =   -2293.03404910 Ry
     estimated scf accuracy    <       0.04283554 Ry

     iteration # 35     ecut=    30.00 Ry     beta= 0.70
     Davidson diagonalization with overlap

---- Real-time Memory Report at c_bands before calling an iterative solver
           657 MiB given to the printing process from OS
             0 MiB allocation reported by mallinfo(arena+hblkhd)
        143193 MiB available memory on the node where the printing process lives
------------------
     ethr =  2.33E-05,  avg # of iterations =  2.0

     negative rho (up, down):  6.824E-03 0.000E+00

     total cpu time spent up to now is       57.5 secs

     total energy              =   -2293.03617360 Ry
     estimated scf accuracy    <       0.01006854 Ry

     iteration # 36     ecut=    30.00 Ry     beta= 0.70
     Davidson diagonalization with overlap

---- Real-time Memory Report at c_bands before calling an iterative solver
           657 MiB given to the printing process from OS
             0 MiB allocation reported by mallinfo(arena+hblkhd)
        143193 MiB available memory on the node where the printing process lives
------------------
     ethr =  5.47E-06,  avg # of iterations = 13.0

     negative rho (up, down):  6.821E-03 0.000E+00

     total cpu time spent up to now is       59.1 secs

     total energy              =   -2293.03352707 Ry
     estimated scf accuracy    <       0.08660471 Ry

     iteration # 37     ecut=    30.00 Ry     beta= 0.70
     Davidson diagonalization with overlap

---- Real-time Memory Report at c_bands before calling an iterative solver
           657 MiB given to the printing process from OS
             0 MiB allocation reported by mallinfo(arena+hblkhd)
        143194 MiB available memory on the node where the printing process lives
------------------
     ethr =  5.47E-06,  avg # of iterations =  9.0

     negative rho (up, down):  6.826E-03 0.000E+00

     total cpu time spent up to now is       60.4 secs

     total energy              =   -2293.03656501 Ry
     estimated scf accuracy    <       0.00928277 Ry

     iteration # 38     ecut=    30.00 Ry     beta= 0.70
     Davidson diagonalization with overlap

---- Real-time Memory Report at c_bands before calling an iterative solver
           657 MiB given to the printing process from OS
             0 MiB allocation reported by mallinfo(arena+hblkhd)
        143193 MiB available memory on the node where the printing process lives
------------------
     ethr =  5.04E-06,  avg # of iterations =  2.0

     negative rho (up, down):  6.827E-03 0.000E+00

     total cpu time spent up to now is       61.7 secs

     total energy              =   -2293.03674362 Ry
     estimated scf accuracy    <       0.00597072 Ry

     iteration # 39     ecut=    30.00 Ry     beta= 0.70
     Davidson diagonalization with overlap

---- Real-time Memory Report at c_bands before calling an iterative solver
           657 MiB given to the printing process from OS
             0 MiB allocation reported by mallinfo(arena+hblkhd)
        143195 MiB available memory on the node where the printing process lives
------------------
     ethr =  3.24E-06,  avg # of iterations =  1.0

     negative rho (up, down):  6.832E-03 0.000E+00

     total cpu time spent up to now is       62.9 secs

     total energy              =   -2293.03677943 Ry
     estimated scf accuracy    <       0.00587772 Ry

     iteration # 40     ecut=    30.00 Ry     beta= 0.70
     Davidson diagonalization with overlap

---- Real-time Memory Report at c_bands before calling an iterative solver
           657 MiB given to the printing process from OS
             0 MiB allocation reported by mallinfo(arena+hblkhd)
        143195 MiB available memory on the node where the printing process lives
------------------
     ethr =  3.19E-06,  avg # of iterations =  1.0

     negative rho (up, down):  6.862E-03 0.000E+00

     total cpu time spent up to now is       64.1 secs

     total energy              =   -2293.03574191 Ry
     estimated scf accuracy    <       0.00321247 Ry

     iteration # 41     ecut=    30.00 Ry     beta= 0.70
     Davidson diagonalization with overlap

---- Real-time Memory Report at c_bands before calling an iterative solver
           657 MiB given to the printing process from OS
             0 MiB allocation reported by mallinfo(arena+hblkhd)
        143196 MiB available memory on the node where the printing process lives
------------------
     ethr =  1.75E-06,  avg # of iterations =  9.0

     negative rho (up, down):  6.860E-03 0.000E+00

     total cpu time spent up to now is       65.7 secs

     total energy              =   -2293.03458906 Ry
     estimated scf accuracy    <       0.02841415 Ry

     iteration # 42     ecut=    30.00 Ry     beta= 0.70
     Davidson diagonalization with overlap

---- Real-time Memory Report at c_bands before calling an iterative solver
           657 MiB given to the printing process from OS
             0 MiB allocation reported by mallinfo(arena+hblkhd)
        143234 MiB available memory on the node where the printing process lives
------------------
     ethr =  1.75E-06,  avg # of iterations = 12.0

     negative rho (up, down):  6.852E-03 0.000E+00

     total cpu time spent up to now is       67.3 secs

     total energy              =   -2293.03654914 Ry
     estimated scf accuracy    <       0.00272931 Ry

     iteration # 43     ecut=    30.00 Ry     beta= 0.70
     Davidson diagonalization with overlap

---- Real-time Memory Report at c_bands before calling an iterative solver
           657 MiB given to the printing process from OS
             0 MiB allocation reported by mallinfo(arena+hblkhd)
        143156 MiB available memory on the node where the printing process lives
------------------
     ethr =  1.48E-06,  avg # of iterations =  2.0

     negative rho (up, down):  6.853E-03 0.000E+00

     total cpu time spent up to now is       68.6 secs

     total energy              =   -2293.03677407 Ry
     estimated scf accuracy    <       0.00028697 Ry

     iteration # 44     ecut=    30.00 Ry     beta= 0.70
     Davidson diagonalization with overlap

---- Real-time Memory Report at c_bands before calling an iterative solver
           657 MiB given to the printing process from OS
             0 MiB allocation reported by mallinfo(arena+hblkhd)
        143153 MiB available memory on the node where the printing process lives
------------------
     ethr =  1.56E-07,  avg # of iterations =  4.0

     negative rho (up, down):  6.853E-03 0.000E+00

     total cpu time spent up to now is       69.9 secs

     total energy              =   -2293.03683451 Ry
     estimated scf accuracy    <       0.00005034 Ry

     iteration # 45     ecut=    30.00 Ry     beta= 0.70
     Davidson diagonalization with overlap

---- Real-time Memory Report at c_bands before calling an iterative solver
           657 MiB given to the printing process from OS
             0 MiB allocation reported by mallinfo(arena+hblkhd)
        143207 MiB available memory on the node where the printing process lives
------------------
     ethr =  2.74E-08,  avg # of iterations =  4.0

     negative rho (up, down):  6.854E-03 0.000E+00

     total cpu time spent up to now is       71.3 secs

     total energy              =   -2293.03683940 Ry
     estimated scf accuracy    <       0.00005542 Ry

     iteration # 46     ecut=    30.00 Ry     beta= 0.70
     Davidson diagonalization with overlap

---- Real-time Memory Report at c_bands before calling an iterative solver
           657 MiB given to the printing process from OS
             0 MiB allocation reported by mallinfo(arena+hblkhd)
        143174 MiB available memory on the node where the printing process lives
------------------
     ethr =  2.74E-08,  avg # of iterations =  2.0

     negative rho (up, down):  6.854E-03 0.000E+00

     total cpu time spent up to now is       72.5 secs

     total energy              =   -2293.03683932 Ry
     estimated scf accuracy    <       0.00009759 Ry

     iteration # 47     ecut=    30.00 Ry     beta= 0.70
     Davidson diagonalization with overlap

---- Real-time Memory Report at c_bands before calling an iterative solver
           657 MiB given to the printing process from OS
             0 MiB allocation reported by mallinfo(arena+hblkhd)
        143154 MiB available memory on the node where the printing process lives
------------------
     ethr =  2.74E-08,  avg # of iterations =  2.0

     negative rho (up, down):  6.854E-03 0.000E+00

     total cpu time spent up to now is       73.8 secs

     total energy              =   -2293.03683165 Ry
     estimated scf accuracy    <       0.00032865 Ry

     iteration # 48     ecut=    30.00 Ry     beta= 0.70
     Davidson diagonalization with overlap

---- Real-time Memory Report at c_bands before calling an iterative solver
           657 MiB given to the printing process from OS
             0 MiB allocation reported by mallinfo(arena+hblkhd)
        143154 MiB available memory on the node where the printing process lives
------------------
     ethr =  2.74E-08,  avg # of iterations =  2.0

     negative rho (up, down):  6.854E-03 0.000E+00

     total cpu time spent up to now is       75.0 secs

     total energy              =   -2293.03684604 Ry
     estimated scf accuracy    <       0.00001492 Ry

     iteration # 49     ecut=    30.00 Ry     beta= 0.70
     Davidson diagonalization with overlap

---- Real-time Memory Report at c_bands before calling an iterative solver
           657 MiB given to the printing process from OS
             0 MiB allocation reported by mallinfo(arena+hblkhd)
        143153 MiB available memory on the node where the printing process lives
------------------
     ethr =  8.11E-09,  avg # of iterations =  1.0

     negative rho (up, down):  6.854E-03 0.000E+00

     total cpu time spent up to now is       76.3 secs

     total energy              =   -2293.03684686 Ry
     estimated scf accuracy    <       0.00000350 Ry

     iteration # 50     ecut=    30.00 Ry     beta= 0.70
     Davidson diagonalization with overlap

---- Real-time Memory Report at c_bands before calling an iterative solver
           657 MiB given to the printing process from OS
             0 MiB allocation reported by mallinfo(arena+hblkhd)
        143152 MiB available memory on the node where the printing process lives
------------------
     ethr =  1.90E-09,  avg # of iterations =  2.0

     negative rho (up, down):  6.855E-03 0.000E+00

     total cpu time spent up to now is       77.5 secs

     total energy              =   -2293.03684674 Ry
     estimated scf accuracy    <       0.00001327 Ry

     iteration # 51     ecut=    30.00 Ry     beta= 0.70
     Davidson diagonalization with overlap

---- Real-time Memory Report at c_bands before calling an iterative solver
           657 MiB given to the printing process from OS
             0 MiB allocation reported by mallinfo(arena+hblkhd)
        143151 MiB available memory on the node where the printing process lives
------------------
     ethr =  1.90E-09,  avg # of iterations =  1.0

     negative rho (up, down):  6.855E-03 0.000E+00

     total cpu time spent up to now is       78.7 secs

     total energy              =   -2293.03684717 Ry
     estimated scf accuracy    <       0.00000219 Ry

     iteration # 52     ecut=    30.00 Ry     beta= 0.70
     Davidson diagonalization with overlap

---- Real-time Memory Report at c_bands before calling an iterative solver
           657 MiB given to the printing process from OS
             0 MiB allocation reported by mallinfo(arena+hblkhd)
        143179 MiB available memory on the node where the printing process lives
------------------
     ethr =  1.19E-09,  avg # of iterations =  2.0

     negative rho (up, down):  6.855E-03 0.000E+00

     total cpu time spent up to now is       79.9 secs

     End of self-consistent calculation

          k = 0.0000 0.0000 0.0000 (  1967 PWs)   bands (ev):

   -75.6426 -75.6410 -75.6401 -75.6381 -46.8583 -46.8557 -46.8530 -46.8503
   -41.6099 -41.6041 -41.6036 -41.5954 -41.2277 -41.2225 -41.2050 -41.1896
   -40.9594 -40.9570 -40.9498 -40.9396 -23.2076 -23.2008 -23.1823 -23.1712
   -23.1210 -23.1151 -23.1128 -23.0862 -23.0735 -23.0656 -23.0126 -23.0066
    -8.1597  -7.4981  -7.2986  -7.0782  -7.0487  -7.0133  -6.8650  -6.7617
    -6.5902  -6.4462  -6.4371  -6.3624   4.6063   5.1568   5.2217   5.2418
     5.2683   5.5372   5.5806   5.7824   5.8524   5.9344   5.9861   6.4468
     6.5205   6.6014   6.7713   6.7748   6.8728   6.9847   7.1013   7.1589
     7.2334   7.6559   7.7725   7.8177   7.9301   7.9362   8.0381   8.2309
     8.3274   8.3289   8.4109   8.5960   9.0798   9.1873   9.2088   9.4499
    10.3578  10.5204  10.6565  10.6577  10.6586  10.7514  10.8354  10.9176
    11.0764  11.1901  11.2084  11.2748  11.6455  11.6559  11.8099  11.8624
    11.9769  12.0873  12.1380  12.2025  12.2139  12.2444  12.2505  12.2710
    12.8908  12.9664  13.1520  13.2445  13.5048  13.5846

     occupation numbers 
     1.0000   1.0000   1.0000   1.0000   1.0000   1.0000   1.0000   1.0000
     1.0000   1.0000   1.0000   1.0000   1.0000   1.0000   1.0000   1.0000
     1.0000   1.0000   1.0000   1.0000   1.0000   1.0000   1.0000   1.0000
     1.0000   1.0000   1.0000   1.0000   1.0000   1.0000   1.0000   1.0000
     1.0000   1.0000   1.0000   1.0000   1.0000   1.0000   1.0000   1.0000
     1.0000   1.0000   1.0000   1.0000   1.0000   1.0000   1.0000   1.0000
     1.0000   1.0000   1.0000   1.0000   1.0000   1.0000   1.0000   1.0000
     1.0000   1.0000   1.0000   1.0000   1.0000   1.0000   1.0000   1.0000
     1.0000   1.0000   1.0000   1.0000   1.0000   1.0000   1.0000   1.0000
     1.0000   1.0000   1.0000   1.0000   1.0000   1.0000   1.0000   1.0000
     1.0000   1.0000   1.0000   1.0000   1.0000   1.0000   1.0000   1.0000
     1.0000   1.0000   1.0000   1.0000  -0.0000  -0.0000  -0.0000  -0.0000
    -0.0000  -0.0000  -0.0000  -0.0000  -0.0000  -0.0000  -0.0000  -0.0000
    -0.0000  -0.0000  -0.0000  -0.0000  -0.0000  -0.0000

     the Fermi energy is    11.4482 ev

!    total energy              =   -2293.03684704 Ry
     estimated scf accuracy    <       0.00000086 Ry
     smearing contrib. (-TS)   =       0.00000000 Ry
     internal energy E=F+TS    =   -2293.03684704 Ry

     The total energy is F=E-TS. E is the sum of the following terms:
     one-electron contribution =    -796.71468093 Ry
     hartree contribution      =     496.65245225 Ry
     xc contribution           =    -299.59656045 Ry
     ewald contribution        =   -1274.84569413 Ry
     one-center paw contrib.   =    -418.53236379 Ry
      -> PAW hartree energy AE =    1183.94552512 Ry
      -> PAW hartree energy PS =   -1179.53569320 Ry
      -> PAW xc energy AE      =    -649.97958578 Ry
      -> PAW xc energy PS      =     227.03739008 Ry
      -> total E_H with PAW    =     501.06228417 Ry
      -> total E_XC with PAW   =    -722.53875616 Ry

     convergence has been achieved in  52 iterations

     negative rho (up, down):  6.855E-03 0.000E+00

     Forces acting on atoms (cartesian axes, Ry/au):

     atom    1 type  1   force =     0.00000000   -0.00000000   -0.00000000
     atom    2 type  1   force =     0.00000000   -0.00000000    0.00000000
     atom    3 type  1   force =     0.00000000    0.00000000    0.00000000
     atom    4 type  1   force =     0.00000000    0.00000000    0.00000000
     atom    5 type  2   force =     0.00246864    0.02223860    0.00000000
     atom    6 type  2   force =     0.00246864   -0.02223860    0.00000000
     atom    7 type  2   force =    -0.00246864    0.02223860    0.00000000
     atom    8 type  2   force =    -0.00246864   -0.02223860    0.00000000
     atom    9 type  3   force =     0.03051976   -0.00926534    0.00000000
     atom   10 type  3   force =     0.03051976    0.00926534   -0.00000000
     atom   11 type  3   force =    -0.03051976   -0.00926534   -0.00000000
     atom   12 type  3   force =    -0.03051976    0.00926534    0.00000000
     atom   13 type  3   force =     0.04370519    0.01098892   -0.04151345
     atom   14 type  3   force =    -0.04370519   -0.01098892    0.04151345
     atom   15 type  3   force =     0.04370519    0.01098892    0.04151345
     atom   16 type  3   force =     0.04370519   -0.01098892   -0.04151345
     atom   17 type  3   force =     0.04370519   -0.01098892    0.04151345
     atom   18 type  3   force =    -0.04370519    0.01098892    0.04151345
     atom   19 type  3   force =    -0.04370519   -0.01098892   -0.04151345
     atom   20 type  3   force =    -0.04370519    0.01098892   -0.04151345
     The non-local contrib.  to forces
     atom    1 type  1   force =     0.00000000   -0.00000000    0.00000000
     atom    2 type  1   force =    -0.00000000    0.00000000    0.00000000
     atom    3 type  1   force =     0.00000000   -0.00000000    0.00000000
     atom    4 type  1   force =     0.00000000    0.00000000   -0.00000000
     atom    5 type  2   force =    -0.06750050   -0.15129109   -0.00000000
     atom    6 type  2   force =    -0.06750050    0.15129109    0.00000000
     atom    7 type  2   force =     0.06750050   -0.15129109    0.00000000
     atom    8 type  2   force =     0.06750050    0.15129109    0.00000000
     atom    9 type  3   force =     0.19428042   -0.10069397   -0.00000000
     atom   10 type  3   force =     0.19428042    0.10069397    0.00000000
     atom   11 type  3   force =    -0.19428042   -0.10069397   -0.00000000
     atom   12 type  3   force =    -0.19428042    0.10069397    0.00000000
     atom   13 type  3   force =     0.07100045    0.08919814   -0.07173624
     atom   14 type  3   force =    -0.07100045   -0.08919814    0.07173624
     atom   15 type  3   force =     0.07100045    0.08919814    0.07173624
     atom   16 type  3   force =     0.07100045   -0.08919814   -0.07173624
     atom   17 type  3   force =     0.07100045   -0.08919814    0.07173624
     atom   18 type  3   force =    -0.07100045    0.08919814    0.07173624
     atom   19 type  3   force =    -0.07100045   -0.08919814   -0.07173624
     atom   20 type  3   force =    -0.07100045    0.08919814   -0.07173624
     The ionic contribution  to forces
     atom    1 type  1   force =    -0.00000000   -0.00000000   -0.00000000
     atom    2 type  1   force =    -0.00000000   -0.00000000   -0.00000000
     atom    3 type  1   force =    -0.00000000    0.00000000   -0.00000000
     atom    4 type  1   force =     0.00000000    0.00000000   -0.00000000
     atom    5 type  2   force =    -1.69088161    0.64268263    0.00000000
     atom    6 type  2   force =    -1.69088161   -0.64268263   -0.00000000
     atom    7 type  2   force =     1.69088161    0.64268263    0.00000000
     atom    8 type  2   force =     1.69088161   -0.64268263   -0.00000000
     atom    9 type  3   force =    -1.04278272    1.34716197   -0.00000000
     atom   10 type  3   force =    -1.04278272   -1.34716197    0.00000000
     atom   11 type  3   force =     1.04278272    1.34716197   -0.00000000
     atom   12 type  3   force =     1.04278272   -1.34716197   -0.00000000
     atom   13 type  3   force =    -0.15640791   -0.54946629    0.01690431
     atom   14 type  3   force =     0.15640791    0.54946629   -0.01690431
     atom   15 type  3   force =    -0.15640791   -0.54946629   -0.01690431
     atom   16 type  3   force =    -0.15640791    0.54946629    0.01690431
     atom   17 type  3   force =    -0.15640791    0.54946629   -0.01690431
     atom   18 type  3   force =     0.15640791   -0.54946629   -0.01690431
     atom   19 type  3   force =     0.15640791    0.54946629    0.01690431
     atom   20 type  3   force =     0.15640791   -0.54946629    0.01690431
     The local contribution  to forces
     atom    1 type  1   force =     0.00002304    0.00000461    0.00011873
     atom    2 type  1   force =    -0.00005861    0.00002554   -0.00020912
     atom    3 type  1   force =     0.00011726   -0.00026389    0.00026526
     atom    4 type  1   force =    -0.00024487    0.00020843   -0.00006138
     atom    5 type  2   force =     1.76205515   -0.45487005    0.00126248
     atom    6 type  2   force =     1.76220094    0.45493072   -0.00141174
     atom    7 type  2   force =    -1.76186608   -0.45477061    0.00131352
     atom    8 type  2   force =    -1.76210149    0.45481804   -0.00129821
     atom    9 type  3   force =     0.88201253   -1.25726000   -0.00050035
     atom   10 type  3   force =     0.88219739    1.25708659    0.00076054
     atom   11 type  3   force =    -0.88213584   -1.25709807   -0.00076981
     atom   12 type  3   force =    -0.88199269    1.25740470    0.00055764
     atom   13 type  3   force =     0.13062057    0.47318525    0.01173101
     atom   14 type  3   force =    -0.13072185   -0.47324863   -0.01145804
     atom   15 type  3   force =     0.13043303    0.47334050   -0.01210741
     atom   16 type  3   force =     0.13055318   -0.47286125    0.01194103
     atom   17 type  3   force =     0.13037922   -0.47315148   -0.01153029
     atom   18 type  3   force =    -0.13061427    0.47289908   -0.01203358
     atom   19 type  3   force =    -0.13050684   -0.47335377    0.01184646
     atom   20 type  3   force =    -0.13044504    0.47311237    0.01164347
     The core correction contribution to forces
     atom    1 type  1   force =     0.00000039    0.00000042    0.00000227
     atom    2 type  1   force =     0.00000015   -0.00000044    0.00000044
     atom    3 type  1   force =     0.00000082   -0.00000310    0.00000019
     atom    4 type  1   force =    -0.00000096    0.00000168   -0.00000088
     atom    5 type  2   force =    -0.00138110   -0.01427743    0.00000007
     atom    6 type  2   force =    -0.00138136    0.01428188   -0.00000550
     atom    7 type  2   force =     0.00138232   -0.01428005    0.00000160
     atom    8 type  2   force =     0.00138027    0.01428026   -0.00000045
     atom    9 type  3   force =    -0.00297931    0.00144253    0.00000057
     atom   10 type  3   force =    -0.00297884   -0.00144253   -0.00000145
     atom   11 type  3   force =     0.00297838    0.00144156    0.00000097
     atom   12 type  3   force =     0.00297822   -0.00144092   -0.00000010
     atom   13 type  3   force =    -0.00137448   -0.00180068    0.00144097
     atom   14 type  3   force =     0.00137371    0.00180006   -0.00144039
     atom   15 type  3   force =    -0.00137298   -0.00179999   -0.00143969
     atom   16 type  3   force =    -0.00137329    0.00180006    0.00143978
     atom   17 type  3   force =    -0.00137343    0.00180052   -0.00144013
     atom   18 type  3   force =     0.00137312   -0.00179985   -0.00143981
     atom   19 type  3   force =     0.00137299    0.00180031    0.00143975
     atom   20 type  3   force =     0.00137374   -0.00180063    0.00144041
     The Hubbard contrib.    to forces
     atom    1 type  1   force =     0.00000000    0.00000000    0.00000000
     atom    2 type  1   force =     0.00000000    0.00000000    0.00000000
     atom    3 type  1   force =     0.00000000    0.00000000    0.00000000
     atom    4 type  1   force =     0.00000000    0.00000000    0.00000000
     atom    5 type  2   force =     0.00000000    0.00000000    0.00000000
     atom    6 type  2   force =     0.00000000    0.00000000    0.00000000
     atom    7 type  2   force =     0.00000000    0.00000000    0.00000000
     atom    8 type  2   force =     0.00000000    0.00000000    0.00000000
     atom    9 type  3   force =     0.00000000    0.00000000    0.00000000
     atom   10 type  3   force =     0.00000000    0.00000000    0.00000000
     atom   11 type  3   force =     0.00000000    0.00000000    0.00000000
     atom   12 type  3   force =     0.00000000    0.00000000    0.00000000
     atom   13 type  3   force =     0.00000000    0.00000000    0.00000000
     atom   14 type  3   force =     0.00000000    0.00000000    0.00000000
     atom   15 type  3   force =     0.00000000    0.00000000    0.00000000
     atom   16 type  3   force =     0.00000000    0.00000000    0.00000000
     atom   17 type  3   force =     0.00000000    0.00000000    0.00000000
     atom   18 type  3   force =     0.00000000    0.00000000    0.00000000
     atom   19 type  3   force =     0.00000000    0.00000000    0.00000000
     atom   20 type  3   force =     0.00000000    0.00000000    0.00000000
     The SCF correction term to forces
     atom    1 type  1   force =    -0.00002133   -0.00000405   -0.00011526
     atom    2 type  1   force =     0.00006465   -0.00002785    0.00021486
     atom    3 type  1   force =    -0.00011590    0.00026161   -0.00027466
     atom    4 type  1   force =     0.00025517   -0.00020781    0.00006048
     atom    5 type  2   force =     0.00017651   -0.00002420   -0.00137747
     atom    6 type  2   force =     0.00000895   -0.00010665    0.00159262
     atom    7 type  2   force =    -0.00040267   -0.00012009   -0.00144536
     atom    8 type  2   force =    -0.00011627    0.00006510    0.00142462
     atom    9 type  3   force =    -0.00004337    0.00012082    0.00054393
     atom   10 type  3   force =    -0.00020029    0.00004875   -0.00085032
     atom   11 type  3   force =     0.00011636   -0.00010437    0.00084662
     atom   12 type  3   force =    -0.00002457   -0.00018076   -0.00058137
     atom   13 type  3   force =    -0.00019357   -0.00015253    0.00019193
     atom   14 type  3   force =     0.00024950    0.00017251   -0.00043322
     atom   15 type  3   force =     0.00008893   -0.00027408    0.00026194
     atom   16 type  3   force =    -0.00005753   -0.00020895   -0.00008563
     atom   17 type  3   force =     0.00010814    0.00011541   -0.00036646
     atom   18 type  3   force =     0.00011489    0.00018578    0.00017968
     atom   19 type  3   force =    -0.00000906    0.00030340    0.00000933
     atom   20 type  3   force =    -0.00002430   -0.00007050    0.00026195

     Total force =     0.190016     Total SCF correction =     0.003508


     Computing stress (Cartesian axis) and pressure


     negative rho (up, down):  6.855E-03 0.000E+00
          total   stress  (Ry/bohr**3)                   (kbar)     P=     -657.59
  -0.00418898   0.00000000   0.00000000         -616.22        0.00        0.00
   0.00000000  -0.00416107   0.00000000            0.00     -612.11        0.00
   0.00000000   0.00000000  -0.00506063            0.00        0.00     -744.44

     kinetic stress (kbar)  34395.73      0.00      0.00
                                0.00  34613.03      0.00
                                0.00      0.00  34443.36

     local   stress (kbar)   5603.73     -0.11     -0.08
                               -0.11   5557.62      0.03
                               -0.08      0.03   5621.29

     nonloc. stress (kbar)  -4285.75      0.00      0.00
                                0.00  -4334.28      0.00
                                0.00      0.00  -4309.27

     hartree stress (kbar)  17207.08      0.07      0.03
                                0.07  17271.17     -0.03
                                0.03     -0.03  17379.34

     exc-cor stress (kbar)  -3655.65      0.00      0.00
                                0.00  -3650.50     -0.00
                                0.00     -0.00  -3650.31

     corecor stress (kbar)  -5688.03     -0.00     -0.00
                               -0.00  -5689.79      0.00
                               -0.00      0.00  -5689.51

     ewald   stress (kbar) -44193.33      0.00     -0.00
                                0.00 -44379.37      0.00
                               -0.00      0.00 -44539.34

     hubbard stress (kbar)      0.00      0.00      0.00
                                0.00      0.00      0.00
                                0.00      0.00      0.00

     DFT-D   stress (kbar)      0.00      0.00      0.00
                                0.00      0.00      0.00
                                0.00      0.00      0.00

     XDM     stress (kbar)      0.00      0.00      0.00
                                0.00      0.00      0.00
                                0.00      0.00      0.00

     dft-nl  stress (kbar)      0.00      0.00      0.00
                                0.00      0.00      0.00
                                0.00      0.00      0.00

     TS-vdW  stress (kbar)      0.00      0.00      0.00
                                0.00      0.00      0.00
                                0.00      0.00      0.00


                                0.00      0.00      0.00
                                0.00      0.00      0.00


                                0.00      0.00      0.00


     Writing all to output data dir new_calculations/myprefix.save/
