
     Program PWSCF v.7.0 starts on 20May2023 at 17:55:33 

     This program is part of the open-source Quantum ESPRESSO suite
     for quantum simulation of materials; please cite
         "P. Giannozzi et al., J. Phys.:Condens. Matter 21 395502 (2009);
         "P. Giannozzi et al., J. Phys.:Condens. Matter 29 465901 (2017);
         "P. Giannozzi et al., J. Chem. Phys. 152 154105 (2020);
          URL http://www.quantum-espresso.org", 
     in publications or presentations arising from this work. More details at
     http://www.quantum-espresso.org/quote

     Parallel version (MPI & OpenMP), running on      32 processor cores
     Number of MPI processes:                 1
     Threads/MPI process:                    32

     MPI processes distributed on     1 nodes
     26944 MiB available memory on the printing compute node when the environment starts
 
     Reading input from espresso_17539.pwi
Warning: card &CELL ignored
Warning: card / ignored

     Current dimensions of program PWSCF are:
     Max number of different atomic species (ntypx) = 10
     Max number of k-points (npk) =  40000
     Max angular momentum in pseudopotentials (lmaxx) =  4
     file O.pbe-n-kjpaw_psl.0.1.UPF: wavefunction(s)  2P renormalized

     gamma-point specific algorithms are used
     Message from routine setup:
     using ibrav=0 with symmetry is DISCOURAGED, use correct ibrav instead

     Subspace diagonalization in iterative solution of the eigenvalue problem:
     a serial algorithm will be used

 
     G-vector sticks info
     --------------------
     sticks:   dense  smooth     PW     G-vecs:    dense   smooth      PW
     Sum        2623    1301    331               135739    47943    5965
 
     Using Slab Decomposition
 


     bravais-lattice index     =            0
     lattice parameter (alat)  =      13.1839  a.u.
     unit-cell volume          =    2161.1642 (a.u.)^3
     number of atoms/cell      =           16
     number of atomic types    =            4
     number of electrons       =       116.00
     number of Kohn-Sham states=           70
     kinetic-energy cutoff     =      30.0000  Ry
     charge density cutoff     =     240.0000  Ry
     scf convergence threshold =      1.0E-06
     mixing beta               =       0.7000
     number of iterations used =            8  plain     mixing
     Exchange-correlation= SLA  PW   PBX  PBC
                           (   1   4   3   4   0   0   0)

     celldm(1)=  13.183914  celldm(2)=   0.000000  celldm(3)=   0.000000
     celldm(4)=   0.000000  celldm(5)=   0.000000  celldm(6)=   0.000000

     crystal axes: (cart. coord. in units of alat)
               a(1) = (   1.000000   0.000000   0.000000 )  
               a(2) = (  -0.613739   0.789509   0.000000 )  
               a(3) = (   0.000000   0.000000   1.194531 )  

     reciprocal axes: (cart. coord. in units 2 pi/alat)
               b(1) = (  1.000000  0.777367  0.000000 )  
               b(2) = (  0.000000  1.266610  0.000000 )  
               b(3) = (  0.000000  0.000000  0.837149 )  


     PseudoPot. # 1 for Cs read from file:
     /home/pragov/projects/rrg-bengioy-ad/pragov/crystal_structure_design/SSSP/Cs_pbe_v1.uspp.F.UPF
     MD5 check sum: 3476d69cb178dfad3ffaa59df4e07ca4
     Pseudo is Ultrasoft + core correction, Zval =  9.0
     Generated by new atomic code, or converted to UPF format
     Using radial grid of  905 points,  6 beta functions with: 
                l(1) =   0
                l(2) =   0
                l(3) =   1
                l(4) =   1
                l(5) =   2
                l(6) =   2
     Q(r) pseudized with  6 coefficients,  rinner =    1.500   1.500   1.500
                                                       1.500   1.500

     PseudoPot. # 2 for Li read from file:
     /home/pragov/projects/rrg-bengioy-ad/pragov/crystal_structure_design/SSSP/li_pbe_v1.4.uspp.F.UPF
     MD5 check sum: e912e257baa3777c20ea3d68f190483c
     Pseudo is Ultrasoft, Zval =  3.0
     Generated by new atomic code, or converted to UPF format
     Using radial grid of  751 points,  5 beta functions with: 
                l(1) =   0
                l(2) =   0
                l(3) =   0
                l(4) =   1
                l(5) =   1
     Q(r) pseudized with 10 coefficients,  rinner =    1.150   1.150   1.150


     PseudoPot. # 3 for V  read from file:
     /home/pragov/projects/rrg-bengioy-ad/pragov/crystal_structure_design/SSSP/v_pbe_v1.4.uspp.F.UPF
     MD5 check sum: 22b79981416ebb76fdaf5b1b8640f6fb
     Pseudo is Ultrasoft + core correction, Zval = 13.0
     Generated by new atomic code, or converted to UPF format
     Using radial grid of  853 points,  6 beta functions with: 
                l(1) =   0
                l(2) =   0
                l(3) =   1
                l(4) =   1
                l(5) =   2
                l(6) =   2
     Q(r) pseudized with  8 coefficients,  rinner =    1.100   1.100   1.100
                                                       1.100   1.100

     PseudoPot. # 4 for O  read from file:
     /home/pragov/projects/rrg-bengioy-ad/pragov/crystal_structure_design/SSSP/O.pbe-n-kjpaw_psl.0.1.UPF
     MD5 check sum: 0234752ac141de4415c5fc33072bef88
     Pseudo is Projector augmented-wave + core cor, Zval =  6.0
     Generated using "atomic" code by A. Dal Corso  v.5.0.99 svn rev. 10869
     Shape of augmentation charge: BESSEL
     Using radial grid of 1095 points,  4 beta functions with: 
                l(1) =   0
                l(2) =   0
                l(3) =   1
                l(4) =   1
     Q(r) pseudized with 0 coefficients 


     atomic species   valence    mass     pseudopotential
        Cs             9.00   132.90545     Cs( 1.00)
        Li             3.00     6.94000     Li( 1.00)
        V             13.00    50.94150     V ( 1.00)
        O              6.00    15.99900     O ( 1.00)

      2 Sym. Ops. (no inversion) found ( 1 have fractional translation)


                                    s                        frac. trans.

      isym =  1     identity                                     

 cryst.   s( 1) = (     1          0          0      )
                  (     0          1          0      )
                  (     0          0          1      )

 cart.    s( 1) = (  1.0000000 -0.0000000  0.0000000 )
                  (  0.0000000  1.0000000  0.0000000 )
                  (  0.0000000  0.0000000  1.0000000 )


      isym =  2     180 deg rotation - cart. axis [0,0,1]        

 cryst.   s( 2) = (    -1          0          0      )    f =(  0.0000000 )
                  (     0         -1          0      )       ( -0.0000000 )
                  (     0          0          1      )       ( -0.5000000 )

 cart.    s( 2) = ( -1.0000000  0.0000000  0.0000000 )    f =(  0.0000000 )
                  (  0.0000000 -1.0000000  0.0000000 )       ( -0.0000000 )
                  (  0.0000000  0.0000000  1.0000000 )       ( -0.5972655 )


   Cartesian axes

     site n.     atom                  positions (alat units)
         1           Cs  tau(   1) = (   0.0206237   0.4791524   0.6480020  )
         2           Cs  tau(   2) = (   0.3656378   0.3103569   0.0507365  )
         3           Cs  tau(   3) = (  -0.4972589   0.7325225   0.4919461  )
         4           Cs  tau(   4) = (   0.8835203   0.0569868   1.0892116  )
         5           Li  tau(   5) = (  -0.2842099   0.6282899   0.9834108  )
         6           Li  tau(   6) = (   0.6704714   0.1612194   0.3861453  )
         7           V   tau(   7) = (   0.5160721   0.2367581   0.7221179  )
         8           V   tau(   8) = (  -0.1298107   0.5527513   0.1248524  )
         9           O   tau(   9) = (  -0.1623989   0.3388732   0.2513222  )
        10           O   tau(  10) = (   0.5486603   0.4506361   0.8485877  )
        11           O   tau(  11) = (  -0.0320326   0.5049141   1.0937210  )
        12           O   tau(  12) = (   0.4182940   0.2845952   0.4964554  )
        13           O   tau(  13) = (   0.0190474   0.7097452   0.2513222  )
        14           O   tau(  14) = (   0.3672140   0.0797641   0.8485877  )
        15           O   tau(  15) = (   0.7370397   0.1286513   0.6695561  )
        16           O   tau(  16) = (  -0.3507783   0.6608580   0.0722906  )

   Crystallographic axes

     site n.     atom                  positions (cryst. coord.)
         1           Cs  tau(   1) = (  0.3931010  0.6068990  0.5424740  )
         2           Cs  tau(   2) = (  0.6068990  0.3931010  0.0424740  )
         3           Cs  tau(   3) = (  0.0721800  0.9278200  0.4118320  )
         4           Cs  tau(   4) = (  0.9278200  0.0721800  0.9118320  )
         5           Li  tau(   5) = (  0.2042020  0.7957980  0.8232610  )
         6           Li  tau(   6) = (  0.7957980  0.2042020  0.3232610  )
         7           V   tau(   7) = (  0.7001200  0.2998800  0.6045200  )
         8           V   tau(   8) = (  0.2998800  0.7001200  0.1045200  )
         9           O   tau(   9) = (  0.1010300  0.4292200  0.2103940  )
        10           O   tau(  10) = (  0.8989700  0.5707800  0.7103940  )
        11           O   tau(  11) = (  0.3604710  0.6395290  0.9156070  )
        12           O   tau(  12) = (  0.6395290  0.3604710  0.4156070  )
        13           O   tau(  13) = (  0.5707800  0.8989700  0.2103940  )
        14           O   tau(  14) = (  0.4292200  0.1010300  0.7103940  )
        15           O   tau(  15) = (  0.8370490  0.1629510  0.5605180  )
        16           O   tau(  16) = (  0.1629510  0.8370490  0.0605180  )

     number of k points=     1  Methfessel-Paxton smearing, width (Ry)=  0.0010
                       cart. coord. in units 2pi/alat
        k(    1) = (   0.0000000   0.0000000   0.0000000), wk =   2.0000000

                       cryst. coord.
        k(    1) = (   0.0000000   0.0000000   0.0000000), wk =   2.0000000

     Dense  grid:    67870 G-vectors     FFT dimensions: (  72,  72,  80)

     Smooth grid:    23972 G-vectors     FFT dimensions: (  45,  45,  60)

     Dynamical RAM for                 wfc:       3.20 MB

     Dynamical RAM for     wfc (w. buffer):       3.20 MB

     Dynamical RAM for           str. fact:       4.14 MB

     Dynamical RAM for           local pot:       0.00 MB

     Dynamical RAM for          nlocal pot:       8.69 MB

     Dynamical RAM for                qrad:       4.98 MB

     Dynamical RAM for          rho,v,vnew:      12.60 MB

     Dynamical RAM for               rhoin:       4.20 MB

     Dynamical RAM for            rho*nmix:      16.57 MB

     Dynamical RAM for           G-vectors:       4.07 MB

     Dynamical RAM for          h,s,v(r/c):       0.45 MB

     Dynamical RAM for          <psi|beta>:       0.10 MB

     Dynamical RAM for                 psi:       6.40 MB

     Dynamical RAM for                hpsi:       6.40 MB

     Dynamical RAM for                spsi:       6.40 MB

     Dynamical RAM for      wfcinit/wfcrot:      10.73 MB

     Dynamical RAM for           addusdens:     200.91 MB

     Dynamical RAM for          addusforce:     215.96 MB

     Dynamical RAM for         addusstress:     208.16 MB

     Estimated static dynamical RAM per process >      62.88 MB

     Estimated max dynamical RAM per process >     295.40 MB

     Check: negative core charge=   -0.000009

     Initial potential from superposition of free atoms

     starting charge     114.9385, renormalised to     116.0000

     negative rho (up, down):  5.234E-04 0.000E+00
     Starting wfcs are  114 randomized atomic wfcs
     Checking if some PAW data can be deallocated... 

     total cpu time spent up to now is        8.0 secs

     Self-consistent Calculation

     iteration #  1     ecut=    30.00 Ry     beta= 0.70
     Davidson diagonalization with overlap

---- Real-time Memory Report at c_bands before calling an iterative solver
           481 MiB given to the printing process from OS
             0 MiB allocation reported by mallinfo(arena+hblkhd)
         26779 MiB available memory on the node where the printing process lives
------------------
     ethr =  1.00E-02,  avg # of iterations =  2.0

     negative rho (up, down):  6.119E-03 0.000E+00

     total cpu time spent up to now is        9.5 secs

     total energy              =    -901.62926830 Ry
     estimated scf accuracy    <       6.53224558 Ry

     iteration #  2     ecut=    30.00 Ry     beta= 0.70
     Davidson diagonalization with overlap

---- Real-time Memory Report at c_bands before calling an iterative solver
           554 MiB given to the printing process from OS
             0 MiB allocation reported by mallinfo(arena+hblkhd)
         26746 MiB available memory on the node where the printing process lives
------------------
     ethr =  5.63E-03,  avg # of iterations =  3.0

     negative rho (up, down):  3.640E-04 0.000E+00

     total cpu time spent up to now is       11.3 secs

     total energy              =    -895.19249372 Ry
     estimated scf accuracy    <      93.24933513 Ry

     iteration #  3     ecut=    30.00 Ry     beta= 0.70
     Davidson diagonalization with overlap

---- Real-time Memory Report at c_bands before calling an iterative solver
           586 MiB given to the printing process from OS
             0 MiB allocation reported by mallinfo(arena+hblkhd)
         26717 MiB available memory on the node where the printing process lives
------------------
     ethr =  5.63E-03,  avg # of iterations =  3.0

     negative rho (up, down):  1.164E-03 0.000E+00

     total cpu time spent up to now is       12.9 secs

     total energy              =    -905.36778491 Ry
     estimated scf accuracy    <       2.14611196 Ry

     iteration #  4     ecut=    30.00 Ry     beta= 0.70
     Davidson diagonalization with overlap

---- Real-time Memory Report at c_bands before calling an iterative solver
           587 MiB given to the printing process from OS
             0 MiB allocation reported by mallinfo(arena+hblkhd)
         26717 MiB available memory on the node where the printing process lives
------------------
     ethr =  1.85E-03,  avg # of iterations =  2.0

     negative rho (up, down):  2.193E-03 0.000E+00

     total cpu time spent up to now is       14.5 secs

     total energy              =    -905.56670639 Ry
     estimated scf accuracy    <       0.35186462 Ry

     iteration #  5     ecut=    30.00 Ry     beta= 0.70
     Davidson diagonalization with overlap

---- Real-time Memory Report at c_bands before calling an iterative solver
           588 MiB given to the printing process from OS
             0 MiB allocation reported by mallinfo(arena+hblkhd)
         26713 MiB available memory on the node where the printing process lives
------------------
     ethr =  3.03E-04,  avg # of iterations =  4.0

     negative rho (up, down):  2.566E-03 0.000E+00

     total cpu time spent up to now is       15.9 secs

     total energy              =    -905.59809992 Ry
     estimated scf accuracy    <       0.01182168 Ry

     iteration #  6     ecut=    30.00 Ry     beta= 0.70
     Davidson diagonalization with overlap

---- Real-time Memory Report at c_bands before calling an iterative solver
           588 MiB given to the printing process from OS
             0 MiB allocation reported by mallinfo(arena+hblkhd)
         26714 MiB available memory on the node where the printing process lives
------------------
     ethr =  1.02E-05,  avg # of iterations =  6.0

     negative rho (up, down):  2.617E-03 0.000E+00

     total cpu time spent up to now is       17.6 secs

     total energy              =    -905.59970476 Ry
     estimated scf accuracy    <       0.00519507 Ry

     iteration #  7     ecut=    30.00 Ry     beta= 0.70
     Davidson diagonalization with overlap

---- Real-time Memory Report at c_bands before calling an iterative solver
           588 MiB given to the printing process from OS
             0 MiB allocation reported by mallinfo(arena+hblkhd)
         26716 MiB available memory on the node where the printing process lives
------------------
     ethr =  4.48E-06,  avg # of iterations =  3.0

     negative rho (up, down):  2.676E-03 0.000E+00

     total cpu time spent up to now is       19.2 secs

     total energy              =    -905.60055336 Ry
     estimated scf accuracy    <       0.00201097 Ry

     iteration #  8     ecut=    30.00 Ry     beta= 0.70
     Davidson diagonalization with overlap

---- Real-time Memory Report at c_bands before calling an iterative solver
           590 MiB given to the printing process from OS
             0 MiB allocation reported by mallinfo(arena+hblkhd)
         26719 MiB available memory on the node where the printing process lives
------------------
     ethr =  1.73E-06,  avg # of iterations =  3.0

     negative rho (up, down):  2.703E-03 0.000E+00

     total cpu time spent up to now is       20.7 secs

     total energy              =    -905.60073727 Ry
     estimated scf accuracy    <       0.00137961 Ry

     iteration #  9     ecut=    30.00 Ry     beta= 0.70
     Davidson diagonalization with overlap

---- Real-time Memory Report at c_bands before calling an iterative solver
           590 MiB given to the printing process from OS
             0 MiB allocation reported by mallinfo(arena+hblkhd)
         26715 MiB available memory on the node where the printing process lives
------------------
     ethr =  1.19E-06,  avg # of iterations =  2.0

     negative rho (up, down):  2.698E-03 0.000E+00

     total cpu time spent up to now is       22.1 secs

     total energy              =    -905.60091976 Ry
     estimated scf accuracy    <       0.00002391 Ry

     iteration # 10     ecut=    30.00 Ry     beta= 0.70
     Davidson diagonalization with overlap

---- Real-time Memory Report at c_bands before calling an iterative solver
           590 MiB given to the printing process from OS
             0 MiB allocation reported by mallinfo(arena+hblkhd)
         26715 MiB available memory on the node where the printing process lives
------------------
     ethr =  2.06E-08,  avg # of iterations =  6.0

     negative rho (up, down):  2.694E-03 0.000E+00

     total cpu time spent up to now is       23.8 secs

     total energy              =    -905.60093247 Ry
     estimated scf accuracy    <       0.00002035 Ry

     iteration # 11     ecut=    30.00 Ry     beta= 0.70
     Davidson diagonalization with overlap

---- Real-time Memory Report at c_bands before calling an iterative solver
           591 MiB given to the printing process from OS
             0 MiB allocation reported by mallinfo(arena+hblkhd)
         26713 MiB available memory on the node where the printing process lives
------------------
     ethr =  1.75E-08,  avg # of iterations =  3.0

     negative rho (up, down):  2.696E-03 0.000E+00

     total cpu time spent up to now is       25.3 secs

     total energy              =    -905.60093645 Ry
     estimated scf accuracy    <       0.00000182 Ry

     iteration # 12     ecut=    30.00 Ry     beta= 0.70
     Davidson diagonalization with overlap

---- Real-time Memory Report at c_bands before calling an iterative solver
           592 MiB given to the printing process from OS
             0 MiB allocation reported by mallinfo(arena+hblkhd)
         26720 MiB available memory on the node where the printing process lives
------------------
     ethr =  1.57E-09,  avg # of iterations =  2.0

     negative rho (up, down):  2.695E-03 0.000E+00

     total cpu time spent up to now is       26.8 secs

     End of self-consistent calculation

          k = 0.0000 0.0000 0.0000 (  2983 PWs)   bands (ev):

   -59.1001 -59.0994 -38.4135 -38.4132 -33.0619 -33.0612 -33.0301 -33.0290
   -32.9747 -32.9741 -15.6873 -15.6131 -15.4975 -15.4707 -11.7548 -11.7452
   -11.4002 -11.3888 -11.3630 -11.3115 -11.2917 -11.2912  -2.9262  -2.9122
    -2.8110  -2.6825  -2.6390  -2.3770  -2.3762  -2.3634  -2.2922  -2.2035
    -2.1943  -2.1634   1.5523   1.6930   1.7203   1.8358   1.8435   1.9499
     1.9660   2.0097   2.1805   2.2471   2.2906   2.4118   2.8137   2.9000
     3.0158   3.0551   3.1577   3.2983   3.7501   3.8945   3.9721   4.0591
     4.0881   4.1602   7.9889   8.0263   8.1280   8.1990   8.7049   9.1077
     9.2336   9.3600   9.4141   9.4347   9.5776  10.6049

     occupation numbers 
     1.0000   1.0000   1.0000   1.0000   1.0000   1.0000   1.0000   1.0000
     1.0000   1.0000   1.0000   1.0000   1.0000   1.0000   1.0000   1.0000
     1.0000   1.0000   1.0000   1.0000   1.0000   1.0000   1.0000   1.0000
     1.0000   1.0000   1.0000   1.0000   1.0000   1.0000   1.0000   1.0000
     1.0000   1.0000   1.0000   1.0000   1.0000   1.0000   1.0000   1.0000
     1.0000   1.0000   1.0000   1.0000   1.0000   1.0000   1.0000   1.0000
     1.0000   1.0000   1.0000   1.0000   1.0000   1.0000   1.0000   1.0000
     1.0000   1.0000  -0.0000  -0.0000  -0.0000  -0.0000  -0.0000  -0.0000
    -0.0000  -0.0000  -0.0000  -0.0000  -0.0000  -0.0000

     the Fermi energy is     6.3674 ev

!    total energy              =    -905.60093663 Ry
     estimated scf accuracy    <       0.00000024 Ry
     smearing contrib. (-TS)   =       0.00000000 Ry
     internal energy E=F+TS    =    -905.60093663 Ry

     The total energy is F=E-TS. E is the sum of the following terms:
     one-electron contribution =    -474.51947242 Ry
     hartree contribution      =     283.69880902 Ry
     xc contribution           =    -226.58156059 Ry
     ewald contribution        =    -411.98490499 Ry
     one-center paw contrib.   =     -76.21380766 Ry
      -> PAW hartree energy AE =     233.74087312 Ry
      -> PAW hartree energy PS =    -232.94045260 Ry
      -> PAW xc energy AE      =    -136.84739436 Ry
      -> PAW xc energy PS      =      59.83316618 Ry
      -> total E_H with PAW    =     284.49922954 Ry
      -> total E_XC with PAW   =    -303.59578877 Ry

     convergence has been achieved in  12 iterations

     negative rho (up, down):  2.695E-03 0.000E+00

     Forces acting on atoms (cartesian axes, Ry/au):

     atom    1 type  1   force =     0.01333526   -0.00652828   -0.00497062
     atom    2 type  1   force =    -0.01333526    0.00652828   -0.00497062
     atom    3 type  1   force =    -0.01088575    0.00532535    0.00235292
     atom    4 type  1   force =     0.01088575   -0.00532535    0.00235292
     atom    5 type  2   force =     0.00224623   -0.00111376    0.00519403
     atom    6 type  2   force =    -0.00224623    0.00111376    0.00519403
     atom    7 type  3   force =     0.00139565   -0.00068130   -0.00262809
     atom    8 type  3   force =    -0.00139565    0.00068130   -0.00262809
     atom    9 type  4   force =     0.00206268    0.02182280   -0.01621396
     atom   10 type  4   force =    -0.00206268   -0.02182280   -0.01621396
     atom   11 type  4   force =    -0.02635536    0.01289177    0.02679988
     atom   12 type  4   force =     0.02635536   -0.01289177    0.02679988
     atom   13 type  4   force =    -0.01598290   -0.01503368   -0.01623222
     atom   14 type  4   force =     0.01598290    0.01503368   -0.01623222
     atom   15 type  4   force =    -0.03971513    0.01943289    0.00569806
     atom   16 type  4   force =     0.03971513   -0.01943289    0.00569806
     The non-local contrib.  to forces
     atom    1 type  1   force =    -0.02389454    0.01168777    0.01485477
     atom    2 type  1   force =     0.02389454   -0.01168777    0.01485477
     atom    3 type  1   force =     0.02872487   -0.01405808   -0.00536624
     atom    4 type  1   force =    -0.02872487    0.01405808   -0.00536624
     atom    5 type  2   force =     0.01449320   -0.00710194    0.00893378
     atom    6 type  2   force =    -0.01449320    0.00710194    0.00893378
     atom    7 type  3   force =     0.00104965   -0.00051792    0.01314116
     atom    8 type  3   force =    -0.00104965    0.00051792    0.01314116
     atom    9 type  4   force =     0.02877162    0.57755114   -0.31239936
     atom   10 type  4   force =    -0.02877162   -0.57755114   -0.31239936
     atom   11 type  4   force =    -0.34215591    0.16739369    0.70843310
     atom   12 type  4   force =     0.34215591   -0.16739369    0.70843310
     atom   13 type  4   force =    -0.43832534   -0.37718655   -0.31240693
     atom   14 type  4   force =     0.43832534    0.37718655   -0.31240693
     atom   15 type  4   force =    -0.67922467    0.33230535    0.03984225
     atom   16 type  4   force =     0.67922467   -0.33230535    0.03984225
     The ionic contribution  to forces
     atom    1 type  1   force =     2.64764634   -1.29534082    0.84364583
     atom    2 type  1   force =    -2.64764634    1.29534082    0.84364583
     atom    3 type  1   force =    -2.99604008    1.46578980   -0.91637112
     atom    4 type  1   force =     2.99604008   -1.46578980   -0.91637112
     atom    5 type  2   force =    -1.13582461    0.55569355   -1.43366419
     atom    6 type  2   force =     1.13582461   -0.55569355   -1.43366419
     atom    7 type  3   force =    -2.09456711    1.02475101    2.47497321
     atom    8 type  3   force =     2.09456711   -1.02475101    2.47497321
     atom    9 type  4   force =     0.92610990  -10.54704627    5.60805643
     atom   10 type  4   force =    -0.92610990   10.54704627    5.60805643
     atom   11 type  4   force =     7.83084870   -3.83118311  -11.42193621
     atom   12 type  4   force =    -7.83084870    3.83118311  -11.42193621
     atom   13 type  4   force =     8.89538065    5.74195679    5.60805643
     atom   14 type  4   force =    -8.89538065   -5.74195679    5.60805643
     atom   15 type  4   force =    13.12417161   -6.42090105   -0.76276037
     atom   16 type  4   force =   -13.12417161    6.42090105   -0.76276037
     The local contribution  to forces
     atom    1 type  1   force =    -2.61185085    1.27780335   -0.86195706
     atom    2 type  1   force =     2.61192473   -1.27786753   -0.86185645
     atom    3 type  1   force =     2.95835976   -1.44733877    0.92322164
     atom    4 type  1   force =    -2.95817578    1.44728581    0.92338021
     atom    5 type  2   force =     1.12354331   -0.54967602    1.43000882
     atom    6 type  2   force =    -1.12360178    0.54977274    1.42991594
     atom    7 type  3   force =     2.09463643   -1.02487914   -2.49190452
     atom    8 type  3   force =    -2.09572681    1.02493315   -2.49168755
     atom    9 type  4   force =    -0.95248224    9.99592421   -5.31420233
     atom   10 type  4   force =     0.95240834   -9.99586047   -5.31418372
     atom   11 type  4   force =    -7.51761568    3.67791457   10.74626836
     atom   12 type  4   force =     7.51750934   -3.67789456   10.74605484
     atom   13 type  4   force =    -8.47652413   -5.38293287   -5.31423806
     atom   14 type  4   force =     8.47634313    5.38290436   -5.31417716
     atom   15 type  4   force =   -12.49008053    6.11068125    0.72876826
     atom   16 type  4   force =    12.48996707   -6.11064673    0.72882766
     The core correction contribution to forces
     atom    1 type  1   force =     0.00149009   -0.00072866   -0.00160637
     atom    2 type  1   force =    -0.00149020    0.00072909   -0.00160335
     atom    3 type  1   force =    -0.00181800    0.00088972    0.00077024
     atom    4 type  1   force =     0.00181847   -0.00089074    0.00077031
     atom    5 type  2   force =     0.00000000    0.00000000    0.00000000
     atom    6 type  2   force =     0.00000000    0.00000000    0.00000000
     atom    7 type  3   force =    -0.00034289    0.00016645    0.00114392
     atom    8 type  3   force =     0.00032897   -0.00016593    0.00114809
     atom    9 type  4   force =    -0.00025411   -0.00435833    0.00223396
     atom   10 type  4   force =     0.00025420    0.00435789    0.00223374
     atom   11 type  4   force =     0.00250460   -0.00122529   -0.00563125
     atom   12 type  4   force =    -0.00250395    0.00122498   -0.00563009
     atom   13 type  4   force =     0.00328480    0.00287554    0.00223404
     atom   14 type  4   force =    -0.00328460   -0.00287532    0.00223373
     atom   15 type  4   force =     0.00523974   -0.00256359   -0.00011834
     atom   16 type  4   force =    -0.00524016    0.00256356   -0.00011881
     The Hubbard contrib.    to forces
     atom    1 type  1   force =     0.00000000    0.00000000    0.00000000
     atom    2 type  1   force =     0.00000000    0.00000000    0.00000000
     atom    3 type  1   force =     0.00000000    0.00000000    0.00000000
     atom    4 type  1   force =     0.00000000    0.00000000    0.00000000
     atom    5 type  2   force =     0.00000000    0.00000000    0.00000000
     atom    6 type  2   force =     0.00000000    0.00000000    0.00000000
     atom    7 type  3   force =     0.00000000    0.00000000    0.00000000
     atom    8 type  3   force =     0.00000000    0.00000000    0.00000000
     atom    9 type  4   force =     0.00000000    0.00000000    0.00000000
     atom   10 type  4   force =     0.00000000    0.00000000    0.00000000
     atom   11 type  4   force =     0.00000000    0.00000000    0.00000000
     atom   12 type  4   force =     0.00000000    0.00000000    0.00000000
     atom   13 type  4   force =     0.00000000    0.00000000    0.00000000
     atom   14 type  4   force =     0.00000000    0.00000000    0.00000000
     atom   15 type  4   force =     0.00000000    0.00000000    0.00000000
     atom   16 type  4   force =     0.00000000    0.00000000    0.00000000
     The SCF correction term to forces
     atom    1 type  1   force =    -0.00004700    0.00004873    0.00011895
     atom    2 type  1   force =    -0.00000922    0.00001234   -0.00003649
     atom    3 type  1   force =    -0.00009861    0.00003632    0.00011593
     atom    4 type  1   force =    -0.00005843    0.00000495   -0.00007609
     atom    5 type  2   force =     0.00002559   -0.00002402   -0.00008536
     atom    6 type  2   force =     0.00001537   -0.00006205    0.00001118
     atom    7 type  3   force =     0.00061080   -0.00020223    0.00002872
     atom    8 type  3   force =     0.00047594    0.00014664   -0.00021191
     atom    9 type  4   force =    -0.00008384   -0.00026998    0.00010537
     atom   10 type  4   force =     0.00015495    0.00016261    0.00007259
     atom   11 type  4   force =     0.00007222   -0.00001357   -0.00036841
     atom   12 type  4   force =     0.00005205   -0.00001709   -0.00008579
     atom   13 type  4   force =     0.00019565    0.00025596    0.00011799
     atom   14 type  4   force =    -0.00002581   -0.00022258    0.00006770
     atom   15 type  4   force =     0.00014404   -0.00007936   -0.00000400
     atom   16 type  4   force =    -0.00009953    0.00006431   -0.00012072

     Total force =     0.104832     Total SCF correction =     0.001141


     Computing stress (Cartesian axis) and pressure


     negative rho (up, down):  2.695E-03 0.000E+00
          total   stress  (Ry/bohr**3)                   (kbar)     P=     -207.99
  -0.00138847   0.00001457   0.00000000         -204.25        2.14        0.00
   0.00001457  -0.00136585   0.00000000            2.14     -200.92        0.00
   0.00000000   0.00000000  -0.00148741            0.00        0.00     -218.81

     kinetic stress (kbar)  11918.00     28.93      0.00
                               28.93  11962.97      0.00
                                0.00      0.00  11931.30

     local   stress (kbar)  -6443.79  -3359.57      0.00
                            -3359.57 -11667.03      0.04
                                0.00      0.04 -14329.65

     nonloc. stress (kbar)   4792.01     -1.18      0.00
                               -1.18   4790.17      0.00
                                0.00      0.00   4770.17

     hartree stress (kbar)   4405.31   1547.75      0.00
                             1547.75   6811.66     -0.04
                                0.00     -0.04   8093.70

     exc-cor stress (kbar)   3897.62      1.45     -0.00
                                1.45   3899.88      0.00
                               -0.00      0.00   3900.86

     corecor stress (kbar)  -7104.90     -0.30      0.00
                               -0.30  -7105.37     -0.00
                                0.00     -0.00  -7104.11

     ewald   stress (kbar) -11668.50   1785.07     -0.00
                             1785.07  -8893.20     -0.00
                               -0.00     -0.00  -7481.08

     hubbard stress (kbar)      0.00      0.00      0.00
                                0.00      0.00      0.00
                                0.00      0.00      0.00

     DFT-D   stress (kbar)      0.00      0.00      0.00
                                0.00      0.00      0.00
                                0.00      0.00      0.00

     XDM     stress (kbar)      0.00      0.00      0.00
                                0.00      0.00      0.00
                                0.00      0.00      0.00

     dft-nl  stress (kbar)      0.00      0.00      0.00
                                0.00      0.00      0.00
                                0.00      0.00      0.00

     TS-vdW  stress (kbar)      0.00      0.00      0.00
                                0.00      0.00      0.00
                                0.00      0.00      0.00


                                0.00      0.00      0.00
                                0.00      0.00      0.00


                                0.00      0.00      0.00


     Writing all to output data dir new_calculations/myprefix.save/
 
     init_run     :    190.53s CPU      7.72s WALL (       1 calls)
     electrons    :    563.87s CPU     18.85s WALL (       1 calls)
     forces       :     17.47s CPU      0.59s WALL (       1 calls)
     stress       :     50.91s CPU      1.70s WALL (       1 calls)

     Called by init_run:
     wfcinit      :     81.80s CPU      2.77s WALL (       1 calls)
     wfcinit:atom :      0.09s CPU      0.00s WALL (       1 calls)
     wfcinit:wfcr :     81.22s CPU      2.75s WALL (       1 calls)
     potinit      :     32.62s CPU      1.07s WALL (       1 calls)
     hinit0       :     65.16s CPU      3.51s WALL (       1 calls)

     Called by electrons:
     c_bands      :    249.46s CPU      7.94s WALL (      12 calls)
     sum_band     :    107.93s CPU      3.95s WALL (      12 calls)
     v_of_rho     :     21.15s CPU      0.71s WALL (      13 calls)
     v_h          :      1.50s CPU      0.05s WALL (      13 calls)
     v_xc         :     22.50s CPU      0.76s WALL (      15 calls)
     newd         :    156.53s CPU      5.30s WALL (      13 calls)
     PAW_pot      :     31.39s CPU      1.04s WALL (      13 calls)
     mix_rho      :      4.80s CPU      0.16s WALL (      12 calls)

     Called by c_bands:
     init_us_2    :      0.46s CPU      0.02s WALL (      25 calls)
     init_us_2:cp :      0.42s CPU      0.02s WALL (      25 calls)
     regterg      :    247.75s CPU      7.88s WALL (      12 calls)

     Called by sum_band:
     sum_band:wei :      0.02s CPU      0.00s WALL (      12 calls)
     sum_band:loo :     44.35s CPU      1.41s WALL (      12 calls)
     sum_band:buf :      0.01s CPU      0.00s WALL (      12 calls)
     sum_band:ini :      0.17s CPU      0.01s WALL (      12 calls)
     sum_band:cal :      0.22s CPU      0.01s WALL (      12 calls)
     sum_band:bec :      0.07s CPU      0.00s WALL (      12 calls)
     addusdens    :     60.27s CPU      2.43s WALL (      12 calls)
     addusd:skk   :      0.55s CPU      0.04s WALL (      48 calls)
     addusd:dgemm :      2.48s CPU      0.47s WALL (      48 calls)
     addusd:qvan2 :     36.25s CPU      1.19s WALL (      48 calls)

     Called by *egterg:
     rdiaghg      :      8.09s CPU      0.27s WALL (      51 calls)
     regterg:over :      0.54s CPU      0.02s WALL (      39 calls)
     regterg:upda :      0.90s CPU      0.03s WALL (      39 calls)
     regterg:last :      2.39s CPU      0.08s WALL (      27 calls)
     h_psi        :    313.35s CPU     10.11s WALL (      52 calls)
     s_psi        :      0.27s CPU      0.01s WALL (      52 calls)
     g_psi        :      0.07s CPU      0.00s WALL (      39 calls)

     Called by h_psi:
     h_psi:calbec :      0.84s CPU      0.03s WALL (      52 calls)
     vloc_psi     :    311.57s CPU     10.05s WALL (      52 calls)
     add_vuspsi   :      0.43s CPU      0.02s WALL (      52 calls)

     General routines
     calbec       :      1.02s CPU      0.04s WALL (      69 calls)
     fft          :     49.58s CPU      2.00s WALL (     161 calls)
     ffts         :     27.45s CPU      0.90s WALL (      25 calls)
     fftw         :    312.01s CPU     10.01s WALL (    2660 calls)
     interpolate  :     28.80s CPU      0.94s WALL (      13 calls)
 
     Parallel routines

     PAW routines
     PAW_pot      :     31.39s CPU      1.04s WALL (      13 calls)
     PAW_symme    :      0.04s CPU      0.00s WALL (      25 calls)
 
     PWSCF        :  13m53.99s CPU     30.44s WALL

 
   This run was terminated on:  17:56: 4  20May2023            

=------------------------------------------------------------------------------=
   JOB DONE.
=------------------------------------------------------------------------------=
